ITEM: TIMESTEP
0
ITEM: NUMBER OF ATOMS
24000
ITEM: BOX BOUNDS pp pp pp
0.0000000000000000e+00 6.2399999999999999e+01
0.0000000000000000e+00 6.2399999999999999e+01
0.0000000000000000e+00 6.2399999999999999e+01
ITEM: ATOMS id mol type q xs ys zs vx vy vz 
1 1 1 -1.1128 0 0 0.025 0 0 0 
2 1 2 0.5564 0.991422 0.991422 0.0343893 0 0 0 
3 1 2 0.5564 0.00857755 0.00857755 0.0343893 0 0 0 
4 2 1 -1.1128 0 0.05 0.05 0 0 0 
5 2 2 0.5564 0.991422 0.0414225 0.0593893 0 0 0 
6 2 2 0.5564 0.00857755 0.0585775 0.0593893 0 0 0 
7 3 1 -1.1128 0.05 0 0.05 0 0 0 
8 3 2 0.5564 0.0414225 0.991422 0.0593893 0 0 0 
9 3 2 0.5564 0.0585775 0.00857755 0.0593893 0 0 0 
10 4 1 -1.1128 0.05 0.05 0.025 0 0 0 
11 4 2 0.5564 0.0414225 0.0414225 0.0343893 0 0 0 
12 4 2 0.5564 0.0585775 0.0585775 0.0343893 0 0 0 
13 5 1 -1.1128 0.075 0.025 0.075 0 0 0 
14 5 2 0.5564 0.0664225 0.0164225 0.0843893 0 0 0 
15 5 2 0.5564 0.0835775 0.0335775 0.0843893 0 0 0 
16 6 1 -1.1128 0.075 0.075 0.025 0 0 0 
17 6 2 0.5564 0.0664225 0.0664225 0.0343893 0 0 0 
18 6 2 0.5564 0.0835775 0.0835775 0.0343893 0 0 0 
19 7 1 -1.1128 0.025 0.025 0.025 0 0 0 
20 7 2 0.5564 0.0164225 0.0164225 0.0343893 0 0 0 
21 7 2 0.5564 0.0335775 0.0335775 0.0343893 0 0 0 
22 8 1 -1.1128 0.025 0.075 0.075 0 0 0 
23 8 2 0.5564 0.0164225 0.0664225 0.0843893 0 0 0 
24 8 2 0.5564 0.0335775 0.0835775 0.0843893 0 0 0 
25 9 1 -1.1128 0 0 0.125 0 0 0 
26 9 2 0.5564 0.991422 0.991422 0.134389 0 0 0 
27 9 2 0.5564 0.00857755 0.00857755 0.134389 0 0 0 
28 10 1 -1.1128 0 0.05 0.15 0 0 0 
29 10 2 0.5564 0.991422 0.0414225 0.159389 0 0 0 
30 10 2 0.5564 0.00857755 0.0585775 0.159389 0 0 0 
31 11 1 -1.1128 0.05 0 0.15 0 0 0 
32 11 2 0.5564 0.0414225 0.991422 0.159389 0 0 0 
33 11 2 0.5564 0.0585775 0.00857755 0.159389 0 0 0 
34 12 1 -1.1128 0.05 0.05 0.125 0 0 0 
35 12 2 0.5564 0.0414225 0.0414225 0.134389 0 0 0 
36 12 2 0.5564 0.0585775 0.0585775 0.134389 0 0 0 
37 13 1 -1.1128 0.075 0.025 0.175 0 0 0 
38 13 2 0.5564 0.0664225 0.0164225 0.184389 0 0 0 
39 13 2 0.5564 0.0835775 0.0335775 0.184389 0 0 0 
40 14 1 -1.1128 0.075 0.075 0.125 0 0 0 
41 14 2 0.5564 0.0664225 0.0664225 0.134389 0 0 0 
42 14 2 0.5564 0.0835775 0.0835775 0.134389 0 0 0 
43 15 1 -1.1128 0.025 0.025 0.125 0 0 0 
44 15 2 0.5564 0.0164225 0.0164225 0.134389 0 0 0 
45 15 2 0.5564 0.0335775 0.0335775 0.134389 0 0 0 
46 16 1 -1.1128 0.025 0.075 0.175 0 0 0 
47 16 2 0.5564 0.0164225 0.0664225 0.184389 0 0 0 
48 16 2 0.5564 0.0335775 0.0835775 0.184389 0 0 0 
49 17 1 -1.1128 0 0 0.225 0 0 0 
50 17 2 0.5564 0.991422 0.991422 0.234389 0 0 0 
51 17 2 0.5564 0.00857755 0.00857755 0.234389 0 0 0 
52 18 1 -1.1128 0 0.05 0.25 0 0 0 
53 18 2 0.5564 0.991422 0.0414225 0.259389 0 0 0 
54 18 2 0.5564 0.00857755 0.0585775 0.259389 0 0 0 
55 19 1 -1.1128 0.05 0 0.25 0 0 0 
56 19 2 0.5564 0.0414225 0.991422 0.259389 0 0 0 
57 19 2 0.5564 0.0585775 0.00857755 0.259389 0 0 0 
58 20 1 -1.1128 0.05 0.05 0.225 0 0 0 
59 20 2 0.5564 0.0414225 0.0414225 0.234389 0 0 0 
60 20 2 0.5564 0.0585775 0.0585775 0.234389 0 0 0 
61 21 1 -1.1128 0.075 0.025 0.275 0 0 0 
62 21 2 0.5564 0.0664225 0.0164225 0.284389 0 0 0 
63 21 2 0.5564 0.0835775 0.0335775 0.284389 0 0 0 
64 22 1 -1.1128 0.075 0.075 0.225 0 0 0 
65 22 2 0.5564 0.0664225 0.0664225 0.234389 0 0 0 
66 22 2 0.5564 0.0835775 0.0835775 0.234389 0 0 0 
67 23 1 -1.1128 0.025 0.025 0.225 0 0 0 
68 23 2 0.5564 0.0164225 0.0164225 0.234389 0 0 0 
69 23 2 0.5564 0.0335775 0.0335775 0.234389 0 0 0 
70 24 1 -1.1128 0.025 0.075 0.275 0 0 0 
71 24 2 0.5564 0.0164225 0.0664225 0.284389 0 0 0 
72 24 2 0.5564 0.0335775 0.0835775 0.284389 0 0 0 
73 25 1 -1.1128 0 0 0.325 0 0 0 
74 25 2 0.5564 0.991422 0.991422 0.334389 0 0 0 
75 25 2 0.5564 0.00857755 0.00857755 0.334389 0 0 0 
76 26 1 -1.1128 0 0.05 0.35 0 0 0 
77 26 2 0.5564 0.991422 0.0414225 0.359389 0 0 0 
78 26 2 0.5564 0.00857755 0.0585775 0.359389 0 0 0 
79 27 1 -1.1128 0.05 0 0.35 0 0 0 
80 27 2 0.5564 0.0414225 0.991422 0.359389 0 0 0 
81 27 2 0.5564 0.0585775 0.00857755 0.359389 0 0 0 
82 28 1 -1.1128 0.05 0.05 0.325 0 0 0 
83 28 2 0.5564 0.0414225 0.0414225 0.334389 0 0 0 
84 28 2 0.5564 0.0585775 0.0585775 0.334389 0 0 0 
85 29 1 -1.1128 0.075 0.025 0.375 0 0 0 
86 29 2 0.5564 0.0664225 0.0164225 0.384389 0 0 0 
87 29 2 0.5564 0.0835775 0.0335775 0.384389 0 0 0 
88 30 1 -1.1128 0.075 0.075 0.325 0 0 0 
89 30 2 0.5564 0.0664225 0.0664225 0.334389 0 0 0 
90 30 2 0.5564 0.0835775 0.0835775 0.334389 0 0 0 
91 31 1 -1.1128 0.025 0.025 0.325 0 0 0 
92 31 2 0.5564 0.0164225 0.0164225 0.334389 0 0 0 
93 31 2 0.5564 0.0335775 0.0335775 0.334389 0 0 0 
94 32 1 -1.1128 0.025 0.075 0.375 0 0 0 
95 32 2 0.5564 0.0164225 0.0664225 0.384389 0 0 0 
96 32 2 0.5564 0.0335775 0.0835775 0.384389 0 0 0 
97 33 1 -1.1128 0 0 0.425 0 0 0 
98 33 2 0.5564 0.991422 0.991422 0.434389 0 0 0 
99 33 2 0.5564 0.00857755 0.00857755 0.434389 0 0 0 
100 34 1 -1.1128 0 0.05 0.45 0 0 0 
101 34 2 0.5564 0.991422 0.0414225 0.459389 0 0 0 
102 34 2 0.5564 0.00857755 0.0585775 0.459389 0 0 0 
103 35 1 -1.1128 0.05 0 0.45 0 0 0 
104 35 2 0.5564 0.0414225 0.991422 0.459389 0 0 0 
105 35 2 0.5564 0.0585775 0.00857755 0.459389 0 0 0 
106 36 1 -1.1128 0.05 0.05 0.425 0 0 0 
107 36 2 0.5564 0.0414225 0.0414225 0.434389 0 0 0 
108 36 2 0.5564 0.0585775 0.0585775 0.434389 0 0 0 
109 37 1 -1.1128 0.075 0.025 0.475 0 0 0 
110 37 2 0.5564 0.0664225 0.0164225 0.484389 0 0 0 
111 37 2 0.5564 0.0835775 0.0335775 0.484389 0 0 0 
112 38 1 -1.1128 0.075 0.075 0.425 0 0 0 
113 38 2 0.5564 0.0664225 0.0664225 0.434389 0 0 0 
114 38 2 0.5564 0.0835775 0.0835775 0.434389 0 0 0 
115 39 1 -1.1128 0.025 0.025 0.425 0 0 0 
116 39 2 0.5564 0.0164225 0.0164225 0.434389 0 0 0 
117 39 2 0.5564 0.0335775 0.0335775 0.434389 0 0 0 
118 40 1 -1.1128 0.025 0.075 0.475 0 0 0 
119 40 2 0.5564 0.0164225 0.0664225 0.484389 0 0 0 
120 40 2 0.5564 0.0335775 0.0835775 0.484389 0 0 0 
121 41 1 -1.1128 0 0 0.525 0 0 0 
122 41 2 0.5564 0.991422 0.991422 0.534389 0 0 0 
123 41 2 0.5564 0.00857755 0.00857755 0.534389 0 0 0 
124 42 1 -1.1128 0 0.05 0.55 0 0 0 
125 42 2 0.5564 0.991422 0.0414225 0.559389 0 0 0 
126 42 2 0.5564 0.00857755 0.0585775 0.559389 0 0 0 
127 43 1 -1.1128 0.05 0 0.55 0 0 0 
128 43 2 0.5564 0.0414225 0.991422 0.559389 0 0 0 
129 43 2 0.5564 0.0585775 0.00857755 0.559389 0 0 0 
130 44 1 -1.1128 0.05 0.05 0.525 0 0 0 
131 44 2 0.5564 0.0414225 0.0414225 0.534389 0 0 0 
132 44 2 0.5564 0.0585775 0.0585775 0.534389 0 0 0 
133 45 1 -1.1128 0.075 0.025 0.575 0 0 0 
134 45 2 0.5564 0.0664225 0.0164225 0.584389 0 0 0 
135 45 2 0.5564 0.0835775 0.0335775 0.584389 0 0 0 
136 46 1 -1.1128 0.075 0.075 0.525 0 0 0 
137 46 2 0.5564 0.0664225 0.0664225 0.534389 0 0 0 
138 46 2 0.5564 0.0835775 0.0835775 0.534389 0 0 0 
139 47 1 -1.1128 0.025 0.025 0.525 0 0 0 
140 47 2 0.5564 0.0164225 0.0164225 0.534389 0 0 0 
141 47 2 0.5564 0.0335775 0.0335775 0.534389 0 0 0 
142 48 1 -1.1128 0.025 0.075 0.575 0 0 0 
143 48 2 0.5564 0.0164225 0.0664225 0.584389 0 0 0 
144 48 2 0.5564 0.0335775 0.0835775 0.584389 0 0 0 
145 49 1 -1.1128 0 0 0.625 0 0 0 
146 49 2 0.5564 0.991422 0.991422 0.634389 0 0 0 
147 49 2 0.5564 0.00857755 0.00857755 0.634389 0 0 0 
148 50 1 -1.1128 0 0.05 0.65 0 0 0 
149 50 2 0.5564 0.991422 0.0414225 0.659389 0 0 0 
150 50 2 0.5564 0.00857755 0.0585775 0.659389 0 0 0 
151 51 1 -1.1128 0.05 0 0.65 0 0 0 
152 51 2 0.5564 0.0414225 0.991422 0.659389 0 0 0 
153 51 2 0.5564 0.0585775 0.00857755 0.659389 0 0 0 
154 52 1 -1.1128 0.05 0.05 0.625 0 0 0 
155 52 2 0.5564 0.0414225 0.0414225 0.634389 0 0 0 
156 52 2 0.5564 0.0585775 0.0585775 0.634389 0 0 0 
157 53 1 -1.1128 0.075 0.025 0.675 0 0 0 
158 53 2 0.5564 0.0664225 0.0164225 0.684389 0 0 0 
159 53 2 0.5564 0.0835775 0.0335775 0.684389 0 0 0 
160 54 1 -1.1128 0.075 0.075 0.625 0 0 0 
161 54 2 0.5564 0.0664225 0.0664225 0.634389 0 0 0 
162 54 2 0.5564 0.0835775 0.0835775 0.634389 0 0 0 
163 55 1 -1.1128 0.025 0.025 0.625 0 0 0 
164 55 2 0.5564 0.0164225 0.0164225 0.634389 0 0 0 
165 55 2 0.5564 0.0335775 0.0335775 0.634389 0 0 0 
166 56 1 -1.1128 0.025 0.075 0.675 0 0 0 
167 56 2 0.5564 0.0164225 0.0664225 0.684389 0 0 0 
168 56 2 0.5564 0.0335775 0.0835775 0.684389 0 0 0 
169 57 1 -1.1128 0 0 0.725 0 0 0 
170 57 2 0.5564 0.991422 0.991422 0.734389 0 0 0 
171 57 2 0.5564 0.00857755 0.00857755 0.734389 0 0 0 
172 58 1 -1.1128 0 0.05 0.75 0 0 0 
173 58 2 0.5564 0.991422 0.0414225 0.759389 0 0 0 
174 58 2 0.5564 0.00857755 0.0585775 0.759389 0 0 0 
175 59 1 -1.1128 0.05 0 0.75 0 0 0 
176 59 2 0.5564 0.0414225 0.991422 0.759389 0 0 0 
177 59 2 0.5564 0.0585775 0.00857755 0.759389 0 0 0 
178 60 1 -1.1128 0.05 0.05 0.725 0 0 0 
179 60 2 0.5564 0.0414225 0.0414225 0.734389 0 0 0 
180 60 2 0.5564 0.0585775 0.0585775 0.734389 0 0 0 
181 61 1 -1.1128 0.075 0.025 0.775 0 0 0 
182 61 2 0.5564 0.0664225 0.0164225 0.784389 0 0 0 
183 61 2 0.5564 0.0835775 0.0335775 0.784389 0 0 0 
184 62 1 -1.1128 0.075 0.075 0.725 0 0 0 
185 62 2 0.5564 0.0664225 0.0664225 0.734389 0 0 0 
186 62 2 0.5564 0.0835775 0.0835775 0.734389 0 0 0 
187 63 1 -1.1128 0.025 0.025 0.725 0 0 0 
188 63 2 0.5564 0.0164225 0.0164225 0.734389 0 0 0 
189 63 2 0.5564 0.0335775 0.0335775 0.734389 0 0 0 
190 64 1 -1.1128 0.025 0.075 0.775 0 0 0 
191 64 2 0.5564 0.0164225 0.0664225 0.784389 0 0 0 
192 64 2 0.5564 0.0335775 0.0835775 0.784389 0 0 0 
193 65 1 -1.1128 0 0 0.825 0 0 0 
194 65 2 0.5564 0.991422 0.991422 0.834389 0 0 0 
195 65 2 0.5564 0.00857755 0.00857755 0.834389 0 0 0 
196 66 1 -1.1128 0 0.05 0.85 0 0 0 
197 66 2 0.5564 0.991422 0.0414225 0.859389 0 0 0 
198 66 2 0.5564 0.00857755 0.0585775 0.859389 0 0 0 
199 67 1 -1.1128 0.05 0 0.85 0 0 0 
200 67 2 0.5564 0.0414225 0.991422 0.859389 0 0 0 
201 67 2 0.5564 0.0585775 0.00857755 0.859389 0 0 0 
202 68 1 -1.1128 0.05 0.05 0.825 0 0 0 
203 68 2 0.5564 0.0414225 0.0414225 0.834389 0 0 0 
204 68 2 0.5564 0.0585775 0.0585775 0.834389 0 0 0 
205 69 1 -1.1128 0.075 0.025 0.875 0 0 0 
206 69 2 0.5564 0.0664225 0.0164225 0.884389 0 0 0 
207 69 2 0.5564 0.0835775 0.0335775 0.884389 0 0 0 
208 70 1 -1.1128 0.075 0.075 0.825 0 0 0 
209 70 2 0.5564 0.0664225 0.0664225 0.834389 0 0 0 
210 70 2 0.5564 0.0835775 0.0835775 0.834389 0 0 0 
211 71 1 -1.1128 0.025 0.025 0.825 0 0 0 
212 71 2 0.5564 0.0164225 0.0164225 0.834389 0 0 0 
213 71 2 0.5564 0.0335775 0.0335775 0.834389 0 0 0 
214 72 1 -1.1128 0.025 0.075 0.875 0 0 0 
215 72 2 0.5564 0.0164225 0.0664225 0.884389 0 0 0 
216 72 2 0.5564 0.0335775 0.0835775 0.884389 0 0 0 
217 73 1 -1.1128 0 0 0.925 0 0 0 
218 73 2 0.5564 0.991422 0.991422 0.934389 0 0 0 
219 73 2 0.5564 0.00857755 0.00857755 0.934389 0 0 0 
220 74 1 -1.1128 0 0.05 0.95 0 0 0 
221 74 2 0.5564 0.991422 0.0414225 0.959389 0 0 0 
222 74 2 0.5564 0.00857755 0.0585775 0.959389 0 0 0 
223 75 1 -1.1128 0.05 0 0.95 0 0 0 
224 75 2 0.5564 0.0414225 0.991422 0.959389 0 0 0 
225 75 2 0.5564 0.0585775 0.00857755 0.959389 0 0 0 
226 76 1 -1.1128 0.05 0.05 0.925 0 0 0 
227 76 2 0.5564 0.0414225 0.0414225 0.934389 0 0 0 
228 76 2 0.5564 0.0585775 0.0585775 0.934389 0 0 0 
229 77 1 -1.1128 0.075 0.025 0.975 0 0 0 
230 77 2 0.5564 0.0664225 0.0164225 0.984389 0 0 0 
231 77 2 0.5564 0.0835775 0.0335775 0.984389 0 0 0 
232 78 1 -1.1128 0.075 0.075 0.925 0 0 0 
233 78 2 0.5564 0.0664225 0.0664225 0.934389 0 0 0 
234 78 2 0.5564 0.0835775 0.0835775 0.934389 0 0 0 
235 79 1 -1.1128 0.025 0.025 0.925 0 0 0 
236 79 2 0.5564 0.0164225 0.0164225 0.934389 0 0 0 
237 79 2 0.5564 0.0335775 0.0335775 0.934389 0 0 0 
238 80 1 -1.1128 0.025 0.075 0.975 0 0 0 
239 80 2 0.5564 0.0164225 0.0664225 0.984389 0 0 0 
240 80 2 0.5564 0.0335775 0.0835775 0.984389 0 0 0 
241 81 1 -1.1128 0 0.1 0.025 0 0 0 
242 81 2 0.5564 0.991422 0.0914225 0.0343893 0 0 0 
243 81 2 0.5564 0.00857755 0.108578 0.0343893 0 0 0 
244 82 1 -1.1128 0 0.15 0.05 0 0 0 
245 82 2 0.5564 0.991422 0.141422 0.0593893 0 0 0 
246 82 2 0.5564 0.00857755 0.158578 0.0593893 0 0 0 
247 83 1 -1.1128 0.05 0.1 0.05 0 0 0 
248 83 2 0.5564 0.0414225 0.0914225 0.0593893 0 0 0 
249 83 2 0.5564 0.0585775 0.108578 0.0593893 0 0 0 
250 84 1 -1.1128 0.05 0.15 0.025 0 0 0 
251 84 2 0.5564 0.0414225 0.141422 0.0343893 0 0 0 
252 84 2 0.5564 0.0585775 0.158578 0.0343893 0 0 0 
253 85 1 -1.1128 0.075 0.125 0.075 0 0 0 
254 85 2 0.5564 0.0664225 0.116422 0.0843893 0 0 0 
255 85 2 0.5564 0.0835775 0.133578 0.0843893 0 0 0 
256 86 1 -1.1128 0.075 0.175 0.025 0 0 0 
257 86 2 0.5564 0.0664225 0.166422 0.0343893 0 0 0 
258 86 2 0.5564 0.0835775 0.183578 0.0343893 0 0 0 
259 87 1 -1.1128 0.025 0.125 0.025 0 0 0 
260 87 2 0.5564 0.0164225 0.116422 0.0343893 0 0 0 
261 87 2 0.5564 0.0335775 0.133578 0.0343893 0 0 0 
262 88 1 -1.1128 0.025 0.175 0.075 0 0 0 
263 88 2 0.5564 0.0164225 0.166422 0.0843893 0 0 0 
264 88 2 0.5564 0.0335775 0.183578 0.0843893 0 0 0 
265 89 1 -1.1128 0 0.1 0.125 0 0 0 
266 89 2 0.5564 0.991422 0.0914225 0.134389 0 0 0 
267 89 2 0.5564 0.00857755 0.108578 0.134389 0 0 0 
268 90 1 -1.1128 0 0.15 0.15 0 0 0 
269 90 2 0.5564 0.991422 0.141422 0.159389 0 0 0 
270 90 2 0.5564 0.00857755 0.158578 0.159389 0 0 0 
271 91 1 -1.1128 0.05 0.1 0.15 0 0 0 
272 91 2 0.5564 0.0414225 0.0914225 0.159389 0 0 0 
273 91 2 0.5564 0.0585775 0.108578 0.159389 0 0 0 
274 92 1 -1.1128 0.05 0.15 0.125 0 0 0 
275 92 2 0.5564 0.0414225 0.141422 0.134389 0 0 0 
276 92 2 0.5564 0.0585775 0.158578 0.134389 0 0 0 
277 93 1 -1.1128 0.075 0.125 0.175 0 0 0 
278 93 2 0.5564 0.0664225 0.116422 0.184389 0 0 0 
279 93 2 0.5564 0.0835775 0.133578 0.184389 0 0 0 
280 94 1 -1.1128 0.075 0.175 0.125 0 0 0 
281 94 2 0.5564 0.0664225 0.166422 0.134389 0 0 0 
282 94 2 0.5564 0.0835775 0.183578 0.134389 0 0 0 
283 95 1 -1.1128 0.025 0.125 0.125 0 0 0 
284 95 2 0.5564 0.0164225 0.116422 0.134389 0 0 0 
285 95 2 0.5564 0.0335775 0.133578 0.134389 0 0 0 
286 96 1 -1.1128 0.025 0.175 0.175 0 0 0 
287 96 2 0.5564 0.0164225 0.166422 0.184389 0 0 0 
288 96 2 0.5564 0.0335775 0.183578 0.184389 0 0 0 
289 97 1 -1.1128 0 0.1 0.225 0 0 0 
290 97 2 0.5564 0.991422 0.0914225 0.234389 0 0 0 
291 97 2 0.5564 0.00857755 0.108578 0.234389 0 0 0 
292 98 1 -1.1128 0 0.15 0.25 0 0 0 
293 98 2 0.5564 0.991422 0.141422 0.259389 0 0 0 
294 98 2 0.5564 0.00857755 0.158578 0.259389 0 0 0 
295 99 1 -1.1128 0.05 0.1 0.25 0 0 0 
296 99 2 0.5564 0.0414225 0.0914225 0.259389 0 0 0 
297 99 2 0.5564 0.0585775 0.108578 0.259389 0 0 0 
298 100 1 -1.1128 0.05 0.15 0.225 0 0 0 
299 100 2 0.5564 0.0414225 0.141422 0.234389 0 0 0 
300 100 2 0.5564 0.0585775 0.158578 0.234389 0 0 0 
301 101 1 -1.1128 0.075 0.125 0.275 0 0 0 
302 101 2 0.5564 0.0664225 0.116422 0.284389 0 0 0 
303 101 2 0.5564 0.0835775 0.133578 0.284389 0 0 0 
304 102 1 -1.1128 0.075 0.175 0.225 0 0 0 
305 102 2 0.5564 0.0664225 0.166422 0.234389 0 0 0 
306 102 2 0.5564 0.0835775 0.183578 0.234389 0 0 0 
307 103 1 -1.1128 0.025 0.125 0.225 0 0 0 
308 103 2 0.5564 0.0164225 0.116422 0.234389 0 0 0 
309 103 2 0.5564 0.0335775 0.133578 0.234389 0 0 0 
310 104 1 -1.1128 0.025 0.175 0.275 0 0 0 
311 104 2 0.5564 0.0164225 0.166422 0.284389 0 0 0 
312 104 2 0.5564 0.0335775 0.183578 0.284389 0 0 0 
313 105 1 -1.1128 0 0.1 0.325 0 0 0 
314 105 2 0.5564 0.991422 0.0914225 0.334389 0 0 0 
315 105 2 0.5564 0.00857755 0.108578 0.334389 0 0 0 
316 106 1 -1.1128 0 0.15 0.35 0 0 0 
317 106 2 0.5564 0.991422 0.141422 0.359389 0 0 0 
318 106 2 0.5564 0.00857755 0.158578 0.359389 0 0 0 
319 107 1 -1.1128 0.05 0.1 0.35 0 0 0 
320 107 2 0.5564 0.0414225 0.0914225 0.359389 0 0 0 
321 107 2 0.5564 0.0585775 0.108578 0.359389 0 0 0 
322 108 1 -1.1128 0.05 0.15 0.325 0 0 0 
323 108 2 0.5564 0.0414225 0.141422 0.334389 0 0 0 
324 108 2 0.5564 0.0585775 0.158578 0.334389 0 0 0 
325 109 1 -1.1128 0.075 0.125 0.375 0 0 0 
326 109 2 0.5564 0.0664225 0.116422 0.384389 0 0 0 
327 109 2 0.5564 0.0835775 0.133578 0.384389 0 0 0 
328 110 1 -1.1128 0.075 0.175 0.325 0 0 0 
329 110 2 0.5564 0.0664225 0.166422 0.334389 0 0 0 
330 110 2 0.5564 0.0835775 0.183578 0.334389 0 0 0 
331 111 1 -1.1128 0.025 0.125 0.325 0 0 0 
332 111 2 0.5564 0.0164225 0.116422 0.334389 0 0 0 
333 111 2 0.5564 0.0335775 0.133578 0.334389 0 0 0 
334 112 1 -1.1128 0.025 0.175 0.375 0 0 0 
335 112 2 0.5564 0.0164225 0.166422 0.384389 0 0 0 
336 112 2 0.5564 0.0335775 0.183578 0.384389 0 0 0 
337 113 1 -1.1128 0 0.1 0.425 0 0 0 
338 113 2 0.5564 0.991422 0.0914225 0.434389 0 0 0 
339 113 2 0.5564 0.00857755 0.108578 0.434389 0 0 0 
340 114 1 -1.1128 0 0.15 0.45 0 0 0 
341 114 2 0.5564 0.991422 0.141422 0.459389 0 0 0 
342 114 2 0.5564 0.00857755 0.158578 0.459389 0 0 0 
343 115 1 -1.1128 0.05 0.1 0.45 0 0 0 
344 115 2 0.5564 0.0414225 0.0914225 0.459389 0 0 0 
345 115 2 0.5564 0.0585775 0.108578 0.459389 0 0 0 
346 116 1 -1.1128 0.05 0.15 0.425 0 0 0 
347 116 2 0.5564 0.0414225 0.141422 0.434389 0 0 0 
348 116 2 0.5564 0.0585775 0.158578 0.434389 0 0 0 
349 117 1 -1.1128 0.075 0.125 0.475 0 0 0 
350 117 2 0.5564 0.0664225 0.116422 0.484389 0 0 0 
351 117 2 0.5564 0.0835775 0.133578 0.484389 0 0 0 
352 118 1 -1.1128 0.075 0.175 0.425 0 0 0 
353 118 2 0.5564 0.0664225 0.166422 0.434389 0 0 0 
354 118 2 0.5564 0.0835775 0.183578 0.434389 0 0 0 
355 119 1 -1.1128 0.025 0.125 0.425 0 0 0 
356 119 2 0.5564 0.0164225 0.116422 0.434389 0 0 0 
357 119 2 0.5564 0.0335775 0.133578 0.434389 0 0 0 
358 120 1 -1.1128 0.025 0.175 0.475 0 0 0 
359 120 2 0.5564 0.0164225 0.166422 0.484389 0 0 0 
360 120 2 0.5564 0.0335775 0.183578 0.484389 0 0 0 
361 121 1 -1.1128 0 0.1 0.525 0 0 0 
362 121 2 0.5564 0.991422 0.0914225 0.534389 0 0 0 
363 121 2 0.5564 0.00857755 0.108578 0.534389 0 0 0 
364 122 1 -1.1128 0 0.15 0.55 0 0 0 
365 122 2 0.5564 0.991422 0.141422 0.559389 0 0 0 
366 122 2 0.5564 0.00857755 0.158578 0.559389 0 0 0 
367 123 1 -1.1128 0.05 0.1 0.55 0 0 0 
368 123 2 0.5564 0.0414225 0.0914225 0.559389 0 0 0 
369 123 2 0.5564 0.0585775 0.108578 0.559389 0 0 0 
370 124 1 -1.1128 0.05 0.15 0.525 0 0 0 
371 124 2 0.5564 0.0414225 0.141422 0.534389 0 0 0 
372 124 2 0.5564 0.0585775 0.158578 0.534389 0 0 0 
373 125 1 -1.1128 0.075 0.125 0.575 0 0 0 
374 125 2 0.5564 0.0664225 0.116422 0.584389 0 0 0 
375 125 2 0.5564 0.0835775 0.133578 0.584389 0 0 0 
376 126 1 -1.1128 0.075 0.175 0.525 0 0 0 
377 126 2 0.5564 0.0664225 0.166422 0.534389 0 0 0 
378 126 2 0.5564 0.0835775 0.183578 0.534389 0 0 0 
379 127 1 -1.1128 0.025 0.125 0.525 0 0 0 
380 127 2 0.5564 0.0164225 0.116422 0.534389 0 0 0 
381 127 2 0.5564 0.0335775 0.133578 0.534389 0 0 0 
382 128 1 -1.1128 0.025 0.175 0.575 0 0 0 
383 128 2 0.5564 0.0164225 0.166422 0.584389 0 0 0 
384 128 2 0.5564 0.0335775 0.183578 0.584389 0 0 0 
385 129 1 -1.1128 0 0.1 0.625 0 0 0 
386 129 2 0.5564 0.991422 0.0914225 0.634389 0 0 0 
387 129 2 0.5564 0.00857755 0.108578 0.634389 0 0 0 
388 130 1 -1.1128 0 0.15 0.65 0 0 0 
389 130 2 0.5564 0.991422 0.141422 0.659389 0 0 0 
390 130 2 0.5564 0.00857755 0.158578 0.659389 0 0 0 
391 131 1 -1.1128 0.05 0.1 0.65 0 0 0 
392 131 2 0.5564 0.0414225 0.0914225 0.659389 0 0 0 
393 131 2 0.5564 0.0585775 0.108578 0.659389 0 0 0 
394 132 1 -1.1128 0.05 0.15 0.625 0 0 0 
395 132 2 0.5564 0.0414225 0.141422 0.634389 0 0 0 
396 132 2 0.5564 0.0585775 0.158578 0.634389 0 0 0 
397 133 1 -1.1128 0.075 0.125 0.675 0 0 0 
398 133 2 0.5564 0.0664225 0.116422 0.684389 0 0 0 
399 133 2 0.5564 0.0835775 0.133578 0.684389 0 0 0 
400 134 1 -1.1128 0.075 0.175 0.625 0 0 0 
401 134 2 0.5564 0.0664225 0.166422 0.634389 0 0 0 
402 134 2 0.5564 0.0835775 0.183578 0.634389 0 0 0 
403 135 1 -1.1128 0.025 0.125 0.625 0 0 0 
404 135 2 0.5564 0.0164225 0.116422 0.634389 0 0 0 
405 135 2 0.5564 0.0335775 0.133578 0.634389 0 0 0 
406 136 1 -1.1128 0.025 0.175 0.675 0 0 0 
407 136 2 0.5564 0.0164225 0.166422 0.684389 0 0 0 
408 136 2 0.5564 0.0335775 0.183578 0.684389 0 0 0 
409 137 1 -1.1128 0 0.1 0.725 0 0 0 
410 137 2 0.5564 0.991422 0.0914225 0.734389 0 0 0 
411 137 2 0.5564 0.00857755 0.108578 0.734389 0 0 0 
412 138 1 -1.1128 0 0.15 0.75 0 0 0 
413 138 2 0.5564 0.991422 0.141422 0.759389 0 0 0 
414 138 2 0.5564 0.00857755 0.158578 0.759389 0 0 0 
415 139 1 -1.1128 0.05 0.1 0.75 0 0 0 
416 139 2 0.5564 0.0414225 0.0914225 0.759389 0 0 0 
417 139 2 0.5564 0.0585775 0.108578 0.759389 0 0 0 
418 140 1 -1.1128 0.05 0.15 0.725 0 0 0 
419 140 2 0.5564 0.0414225 0.141422 0.734389 0 0 0 
420 140 2 0.5564 0.0585775 0.158578 0.734389 0 0 0 
421 141 1 -1.1128 0.075 0.125 0.775 0 0 0 
422 141 2 0.5564 0.0664225 0.116422 0.784389 0 0 0 
423 141 2 0.5564 0.0835775 0.133578 0.784389 0 0 0 
424 142 1 -1.1128 0.075 0.175 0.725 0 0 0 
425 142 2 0.5564 0.0664225 0.166422 0.734389 0 0 0 
426 142 2 0.5564 0.0835775 0.183578 0.734389 0 0 0 
427 143 1 -1.1128 0.025 0.125 0.725 0 0 0 
428 143 2 0.5564 0.0164225 0.116422 0.734389 0 0 0 
429 143 2 0.5564 0.0335775 0.133578 0.734389 0 0 0 
430 144 1 -1.1128 0.025 0.175 0.775 0 0 0 
431 144 2 0.5564 0.0164225 0.166422 0.784389 0 0 0 
432 144 2 0.5564 0.0335775 0.183578 0.784389 0 0 0 
433 145 1 -1.1128 0 0.1 0.825 0 0 0 
434 145 2 0.5564 0.991422 0.0914225 0.834389 0 0 0 
435 145 2 0.5564 0.00857755 0.108578 0.834389 0 0 0 
436 146 1 -1.1128 0 0.15 0.85 0 0 0 
437 146 2 0.5564 0.991422 0.141422 0.859389 0 0 0 
438 146 2 0.5564 0.00857755 0.158578 0.859389 0 0 0 
439 147 1 -1.1128 0.05 0.1 0.85 0 0 0 
440 147 2 0.5564 0.0414225 0.0914225 0.859389 0 0 0 
441 147 2 0.5564 0.0585775 0.108578 0.859389 0 0 0 
442 148 1 -1.1128 0.05 0.15 0.825 0 0 0 
443 148 2 0.5564 0.0414225 0.141422 0.834389 0 0 0 
444 148 2 0.5564 0.0585775 0.158578 0.834389 0 0 0 
445 149 1 -1.1128 0.075 0.125 0.875 0 0 0 
446 149 2 0.5564 0.0664225 0.116422 0.884389 0 0 0 
447 149 2 0.5564 0.0835775 0.133578 0.884389 0 0 0 
448 150 1 -1.1128 0.075 0.175 0.825 0 0 0 
449 150 2 0.5564 0.0664225 0.166422 0.834389 0 0 0 
450 150 2 0.5564 0.0835775 0.183578 0.834389 0 0 0 
451 151 1 -1.1128 0.025 0.125 0.825 0 0 0 
452 151 2 0.5564 0.0164225 0.116422 0.834389 0 0 0 
453 151 2 0.5564 0.0335775 0.133578 0.834389 0 0 0 
454 152 1 -1.1128 0.025 0.175 0.875 0 0 0 
455 152 2 0.5564 0.0164225 0.166422 0.884389 0 0 0 
456 152 2 0.5564 0.0335775 0.183578 0.884389 0 0 0 
457 153 1 -1.1128 0 0.1 0.925 0 0 0 
458 153 2 0.5564 0.991422 0.0914225 0.934389 0 0 0 
459 153 2 0.5564 0.00857755 0.108578 0.934389 0 0 0 
460 154 1 -1.1128 0 0.15 0.95 0 0 0 
461 154 2 0.5564 0.991422 0.141422 0.959389 0 0 0 
462 154 2 0.5564 0.00857755 0.158578 0.959389 0 0 0 
463 155 1 -1.1128 0.05 0.1 0.95 0 0 0 
464 155 2 0.5564 0.0414225 0.0914225 0.959389 0 0 0 
465 155 2 0.5564 0.0585775 0.108578 0.959389 0 0 0 
466 156 1 -1.1128 0.05 0.15 0.925 0 0 0 
467 156 2 0.5564 0.0414225 0.141422 0.934389 0 0 0 
468 156 2 0.5564 0.0585775 0.158578 0.934389 0 0 0 
469 157 1 -1.1128 0.075 0.125 0.975 0 0 0 
470 157 2 0.5564 0.0664225 0.116422 0.984389 0 0 0 
471 157 2 0.5564 0.0835775 0.133578 0.984389 0 0 0 
472 158 1 -1.1128 0.075 0.175 0.925 0 0 0 
473 158 2 0.5564 0.0664225 0.166422 0.934389 0 0 0 
474 158 2 0.5564 0.0835775 0.183578 0.934389 0 0 0 
475 159 1 -1.1128 0.025 0.125 0.925 0 0 0 
476 159 2 0.5564 0.0164225 0.116422 0.934389 0 0 0 
477 159 2 0.5564 0.0335775 0.133578 0.934389 0 0 0 
478 160 1 -1.1128 0.025 0.175 0.975 0 0 0 
479 160 2 0.5564 0.0164225 0.166422 0.984389 0 0 0 
480 160 2 0.5564 0.0335775 0.183578 0.984389 0 0 0 
481 161 1 -1.1128 0 0.2 0.025 0 0 0 
482 161 2 0.5564 0.991422 0.191422 0.0343893 0 0 0 
483 161 2 0.5564 0.00857755 0.208578 0.0343893 0 0 0 
484 162 1 -1.1128 0 0.25 0.05 0 0 0 
485 162 2 0.5564 0.991422 0.241422 0.0593893 0 0 0 
486 162 2 0.5564 0.00857755 0.258578 0.0593893 0 0 0 
487 163 1 -1.1128 0.05 0.2 0.05 0 0 0 
488 163 2 0.5564 0.0414225 0.191422 0.0593893 0 0 0 
489 163 2 0.5564 0.0585775 0.208578 0.0593893 0 0 0 
490 164 1 -1.1128 0.05 0.25 0.025 0 0 0 
491 164 2 0.5564 0.0414225 0.241422 0.0343893 0 0 0 
492 164 2 0.5564 0.0585775 0.258578 0.0343893 0 0 0 
493 165 1 -1.1128 0.075 0.225 0.075 0 0 0 
494 165 2 0.5564 0.0664225 0.216422 0.0843893 0 0 0 
495 165 2 0.5564 0.0835775 0.233578 0.0843893 0 0 0 
496 166 1 -1.1128 0.075 0.275 0.025 0 0 0 
497 166 2 0.5564 0.0664225 0.266422 0.0343893 0 0 0 
498 166 2 0.5564 0.0835775 0.283578 0.0343893 0 0 0 
499 167 1 -1.1128 0.025 0.225 0.025 0 0 0 
500 167 2 0.5564 0.0164225 0.216422 0.0343893 0 0 0 
501 167 2 0.5564 0.0335775 0.233578 0.0343893 0 0 0 
502 168 1 -1.1128 0.025 0.275 0.075 0 0 0 
503 168 2 0.5564 0.0164225 0.266422 0.0843893 0 0 0 
504 168 2 0.5564 0.0335775 0.283578 0.0843893 0 0 0 
505 169 1 -1.1128 0 0.2 0.125 0 0 0 
506 169 2 0.5564 0.991422 0.191422 0.134389 0 0 0 
507 169 2 0.5564 0.00857755 0.208578 0.134389 0 0 0 
508 170 1 -1.1128 0 0.25 0.15 0 0 0 
509 170 2 0.5564 0.991422 0.241422 0.159389 0 0 0 
510 170 2 0.5564 0.00857755 0.258578 0.159389 0 0 0 
511 171 1 -1.1128 0.05 0.2 0.15 0 0 0 
512 171 2 0.5564 0.0414225 0.191422 0.159389 0 0 0 
513 171 2 0.5564 0.0585775 0.208578 0.159389 0 0 0 
514 172 1 -1.1128 0.05 0.25 0.125 0 0 0 
515 172 2 0.5564 0.0414225 0.241422 0.134389 0 0 0 
516 172 2 0.5564 0.0585775 0.258578 0.134389 0 0 0 
517 173 1 -1.1128 0.075 0.225 0.175 0 0 0 
518 173 2 0.5564 0.0664225 0.216422 0.184389 0 0 0 
519 173 2 0.5564 0.0835775 0.233578 0.184389 0 0 0 
520 174 1 -1.1128 0.075 0.275 0.125 0 0 0 
521 174 2 0.5564 0.0664225 0.266422 0.134389 0 0 0 
522 174 2 0.5564 0.0835775 0.283578 0.134389 0 0 0 
523 175 1 -1.1128 0.025 0.225 0.125 0 0 0 
524 175 2 0.5564 0.0164225 0.216422 0.134389 0 0 0 
525 175 2 0.5564 0.0335775 0.233578 0.134389 0 0 0 
526 176 1 -1.1128 0.025 0.275 0.175 0 0 0 
527 176 2 0.5564 0.0164225 0.266422 0.184389 0 0 0 
528 176 2 0.5564 0.0335775 0.283578 0.184389 0 0 0 
529 177 1 -1.1128 0 0.2 0.225 0 0 0 
530 177 2 0.5564 0.991422 0.191422 0.234389 0 0 0 
531 177 2 0.5564 0.00857755 0.208578 0.234389 0 0 0 
532 178 1 -1.1128 0 0.25 0.25 0 0 0 
533 178 2 0.5564 0.991422 0.241422 0.259389 0 0 0 
534 178 2 0.5564 0.00857755 0.258578 0.259389 0 0 0 
535 179 1 -1.1128 0.05 0.2 0.25 0 0 0 
536 179 2 0.5564 0.0414225 0.191422 0.259389 0 0 0 
537 179 2 0.5564 0.0585775 0.208578 0.259389 0 0 0 
538 180 1 -1.1128 0.05 0.25 0.225 0 0 0 
539 180 2 0.5564 0.0414225 0.241422 0.234389 0 0 0 
540 180 2 0.5564 0.0585775 0.258578 0.234389 0 0 0 
541 181 1 -1.1128 0.075 0.225 0.275 0 0 0 
542 181 2 0.5564 0.0664225 0.216422 0.284389 0 0 0 
543 181 2 0.5564 0.0835775 0.233578 0.284389 0 0 0 
544 182 1 -1.1128 0.075 0.275 0.225 0 0 0 
545 182 2 0.5564 0.0664225 0.266422 0.234389 0 0 0 
546 182 2 0.5564 0.0835775 0.283578 0.234389 0 0 0 
547 183 1 -1.1128 0.025 0.225 0.225 0 0 0 
548 183 2 0.5564 0.0164225 0.216422 0.234389 0 0 0 
549 183 2 0.5564 0.0335775 0.233578 0.234389 0 0 0 
550 184 1 -1.1128 0.025 0.275 0.275 0 0 0 
551 184 2 0.5564 0.0164225 0.266422 0.284389 0 0 0 
552 184 2 0.5564 0.0335775 0.283578 0.284389 0 0 0 
553 185 1 -1.1128 0 0.2 0.325 0 0 0 
554 185 2 0.5564 0.991422 0.191422 0.334389 0 0 0 
555 185 2 0.5564 0.00857755 0.208578 0.334389 0 0 0 
556 186 1 -1.1128 0 0.25 0.35 0 0 0 
557 186 2 0.5564 0.991422 0.241422 0.359389 0 0 0 
558 186 2 0.5564 0.00857755 0.258578 0.359389 0 0 0 
559 187 1 -1.1128 0.05 0.2 0.35 0 0 0 
560 187 2 0.5564 0.0414225 0.191422 0.359389 0 0 0 
561 187 2 0.5564 0.0585775 0.208578 0.359389 0 0 0 
562 188 1 -1.1128 0.05 0.25 0.325 0 0 0 
563 188 2 0.5564 0.0414225 0.241422 0.334389 0 0 0 
564 188 2 0.5564 0.0585775 0.258578 0.334389 0 0 0 
565 189 1 -1.1128 0.075 0.225 0.375 0 0 0 
566 189 2 0.5564 0.0664225 0.216422 0.384389 0 0 0 
567 189 2 0.5564 0.0835775 0.233578 0.384389 0 0 0 
568 190 1 -1.1128 0.075 0.275 0.325 0 0 0 
569 190 2 0.5564 0.0664225 0.266422 0.334389 0 0 0 
570 190 2 0.5564 0.0835775 0.283578 0.334389 0 0 0 
571 191 1 -1.1128 0.025 0.225 0.325 0 0 0 
572 191 2 0.5564 0.0164225 0.216422 0.334389 0 0 0 
573 191 2 0.5564 0.0335775 0.233578 0.334389 0 0 0 
574 192 1 -1.1128 0.025 0.275 0.375 0 0 0 
575 192 2 0.5564 0.0164225 0.266422 0.384389 0 0 0 
576 192 2 0.5564 0.0335775 0.283578 0.384389 0 0 0 
577 193 1 -1.1128 0 0.2 0.425 0 0 0 
578 193 2 0.5564 0.991422 0.191422 0.434389 0 0 0 
579 193 2 0.5564 0.00857755 0.208578 0.434389 0 0 0 
580 194 1 -1.1128 0 0.25 0.45 0 0 0 
581 194 2 0.5564 0.991422 0.241422 0.459389 0 0 0 
582 194 2 0.5564 0.00857755 0.258578 0.459389 0 0 0 
583 195 1 -1.1128 0.05 0.2 0.45 0 0 0 
584 195 2 0.5564 0.0414225 0.191422 0.459389 0 0 0 
585 195 2 0.5564 0.0585775 0.208578 0.459389 0 0 0 
586 196 1 -1.1128 0.05 0.25 0.425 0 0 0 
587 196 2 0.5564 0.0414225 0.241422 0.434389 0 0 0 
588 196 2 0.5564 0.0585775 0.258578 0.434389 0 0 0 
589 197 1 -1.1128 0.075 0.225 0.475 0 0 0 
590 197 2 0.5564 0.0664225 0.216422 0.484389 0 0 0 
591 197 2 0.5564 0.0835775 0.233578 0.484389 0 0 0 
592 198 1 -1.1128 0.075 0.275 0.425 0 0 0 
593 198 2 0.5564 0.0664225 0.266422 0.434389 0 0 0 
594 198 2 0.5564 0.0835775 0.283578 0.434389 0 0 0 
595 199 1 -1.1128 0.025 0.225 0.425 0 0 0 
596 199 2 0.5564 0.0164225 0.216422 0.434389 0 0 0 
597 199 2 0.5564 0.0335775 0.233578 0.434389 0 0 0 
598 200 1 -1.1128 0.025 0.275 0.475 0 0 0 
599 200 2 0.5564 0.0164225 0.266422 0.484389 0 0 0 
600 200 2 0.5564 0.0335775 0.283578 0.484389 0 0 0 
601 201 1 -1.1128 0 0.2 0.525 0 0 0 
602 201 2 0.5564 0.991422 0.191422 0.534389 0 0 0 
603 201 2 0.5564 0.00857755 0.208578 0.534389 0 0 0 
604 202 1 -1.1128 0 0.25 0.55 0 0 0 
605 202 2 0.5564 0.991422 0.241422 0.559389 0 0 0 
606 202 2 0.5564 0.00857755 0.258578 0.559389 0 0 0 
607 203 1 -1.1128 0.05 0.2 0.55 0 0 0 
608 203 2 0.5564 0.0414225 0.191422 0.559389 0 0 0 
609 203 2 0.5564 0.0585775 0.208578 0.559389 0 0 0 
610 204 1 -1.1128 0.05 0.25 0.525 0 0 0 
611 204 2 0.5564 0.0414225 0.241422 0.534389 0 0 0 
612 204 2 0.5564 0.0585775 0.258578 0.534389 0 0 0 
613 205 1 -1.1128 0.075 0.225 0.575 0 0 0 
614 205 2 0.5564 0.0664225 0.216422 0.584389 0 0 0 
615 205 2 0.5564 0.0835775 0.233578 0.584389 0 0 0 
616 206 1 -1.1128 0.075 0.275 0.525 0 0 0 
617 206 2 0.5564 0.0664225 0.266422 0.534389 0 0 0 
618 206 2 0.5564 0.0835775 0.283578 0.534389 0 0 0 
619 207 1 -1.1128 0.025 0.225 0.525 0 0 0 
620 207 2 0.5564 0.0164225 0.216422 0.534389 0 0 0 
621 207 2 0.5564 0.0335775 0.233578 0.534389 0 0 0 