LAMMPS (17 Nov 2016)
OMP_NUM_THREADS environment is not set. Defaulting to 1 thread. (../comm.cpp:90)
  using 1 OpenMP thread(s) per MPI task
## 1. Initialization
units         real ## grams/mole, Angstroms, femtoseconds, Kcal/mole, Kelvin, atmospheres, multiple of electron charge (1.0 for a proton)
dimension     3 ## runs a 3D simulation
processors    * * * grid numa ## LAMMPS chooses the appropriate number of processors
boundary      p p p ## periodic in all dimensions
atom_style    full ## bonds, angles, dihedrals, impropers, charge
bond_style    harmonic
angle_style   harmonic


## 2. Atom definition
read_data	water.dat
  orthogonal box = (0 0 0) to (31 31 31)
  2 by 2 by 7 MPI processor grid
  2 by 2 by 7 core grid within node
  reading atoms ...
  3000 atoms
  scanning bonds ...
  2 = max bonds/atom
  scanning angles ...
  1 = max angles/atom
  reading bonds ...
  2000 bonds
  reading angles ...
  1000 angles
  2 = max # of 1-2 neighbors
  1 = max # of 1-3 neighbors
  1 = max # of 1-4 neighbors
  2 = max # of special neighbors

## 3. Settings
pair_style lj/cut/tip4p/long 1 2 1 1 0.1546 8.5
pair_modify tail yes
pair_coeff 2 2 0.0 0.0
pair_coeff 1 2 0.0 0.0
pair_coeff 1 1 0.18520 3.1589
bond_style harmonic
bond_coeff 1 1000.0 0.9572
angle_style harmonic
angle_coeff 1 75.0 104.52
kspace_style pppm/tip4p 1.0e-5

neighbor 2.0 bin
neigh_modify every 1 delay 0 check yes

thermo      50
thermo_style custom step temp press vol density etotal pe ke lx ly lz
thermo_modify norm no flush yes
dump	H2Oxyz all xyz 1000 H2O.xyz
dump  finalpos all custom 150000 finalpos.dump id mol type q xs ys zs vx vy vz
dump_modify finalpos sort id pbc yes
restart 100000 restart.res

compute myRDF all rdf 500 1 1 1 2 2 2
fix 3 all ave/time 2 100 500 c_myRDF[*] file H2O.rdf mode vector

compute myMSD all msd
fix 5 all ave/time 100 1 100 c_myMSD[*] file H2O.msd mode vector

minimize 0 1.0e-6 1000 100000
PPPM initialization ...
  extracting TIP4P info from pair style
WARNING: Using 12-bit tables for long-range coulomb (../kspace.cpp:317)
  G vector (1/distance) = 0.369625
  grid = 36 36 36
  stencil order = 5
  estimated absolute RMS force accuracy = 0.00326832
  estimated relative force accuracy = 9.84246e-06
  using double precision FFTs
  3d grid and FFT values/proc = 8125 2592
Neighbor list info ...
  2 neighbor list requests
  update every 1 steps, delay 0 steps, check yes
  max neighbors/atom: 2000, page size: 100000
  master list distance cutoff = 10.8092
  ghost atom cutoff = 10.8092
  binsize = 5.4046 -> bins = 6 6 6
Memory usage per processor = 11.9217 Mbytes
Step Temp Press Volume Density TotEng PotEng KinEng Lx Ly Lz 
       0            0    6255.6388        29791    1.0041715    -6097.095    -6097.095            0           31           31           31 
       6            0   -2871.3377        29791    1.0041715   -6186.6026   -6186.6026            0           31           31           31 
Loop time of 0.212203 on 28 procs for 6 steps with 3000 atoms

99.0% CPU use with 28 MPI tasks x no OpenMP threads

Minimization stats:
  Stopping criterion = linesearch alpha is zero
  Energy initial, next-to-last, final = 
        -6097.09496508     -6186.60257174     -6186.60257174
  Force two-norm initial, final = 578.984 2.30253
  Force max component initial, final = 14.8097 0.0591784
  Final line search alpha, max atom move = 1.86265e-09 1.10228e-10
  Iterations, force evaluations = 6 66

MPI task timing breakdown:
Section |  min time  |  avg time  |  max time  |%varavg| %total
---------------------------------------------------------------
Pair    | 0.029869   | 0.059832   | 0.084734   |   6.7 | 28.20
Bond    | 0.00022233 | 0.00034442 | 0.00062848 |   0.6 |  0.16
Kspace  | 0.10932    | 0.13413    | 0.16439    |   4.5 | 63.21
Neigh   | 0.0016291  | 0.0016848  | 0.0017267  |   0.1 |  0.79
Comm    | 0.0096186  | 0.010699   | 0.011767   |   0.6 |  5.04
Output  | 0          | 0          | 0          |   0.0 |  0.00
Modify  | 0          | 0          | 0          |   0.0 |  0.00
Other   |            | 0.005513   |            |       |  2.60

Nlocal:    107.143 ave 151 max 74 min
Histogram: 8 0 0 8 0 0 8 0 0 4
Nghost:    3534 ave 3814 max 3305 min
Histogram: 9 3 0 4 0 0 4 0 0 8
Neighs:    28642.9 ave 40876 max 18411 min
Histogram: 4 4 1 3 1 7 4 0 0 4

Total # of neighbors = 802000
Ave neighs/atom = 267.333
Ave special neighs/atom = 2
Neighbor list builds = 1
Dangerous builds = 0

velocity all create 10.0 12345678

fix 1 all shake 0.0001 20 10000 b 1 a 1
  0 = # of size 2 clusters
  0 = # of size 3 clusters
  0 = # of size 4 clusters
  1000 = # of frozen angles
fix 2 all npt temp 300.0 300.0 100.0 iso 1.0 1.0 1000.0
fix 4 all momentum 1 linear 1 1 1

## 4. Run
timestep 1.0
run 50000
PPPM initialization ...
  extracting TIP4P info from pair style
WARNING: Using 12-bit tables for long-range coulomb (../kspace.cpp:317)
  G vector (1/distance) = 0.369625
  grid = 36 36 36
  stencil order = 5
  estimated absolute RMS force accuracy = 0.00326832
  estimated relative force accuracy = 9.84246e-06
  using double precision FFTs
  3d grid and FFT values/proc = 8125 2592
SHAKE stats (type/ave/delta) on step 6
  1 0.96025 1.72262e-05
  1 102.706 0.00446762
Memory usage per processor = 11.6719 Mbytes
Step Temp Press Volume Density TotEng PotEng KinEng Lx Ly Lz 
       6    15.002501   -1933.3347        29791    1.0041715   -6190.9825    -6280.377    89.394493           31           31           31 
      50    163.29496   -5316.6394        29737     1.005995   -6019.2814   -6992.2971    973.01578    30.981258    30.981258    30.981258 
     100    472.31964   -2257.7931    29389.937    1.0178747   -6026.2457   -8840.6281    2814.3824    30.860258    30.860258    30.860258 
     150    504.87908    8791.8761    29035.818    1.0302886   -6394.0203   -9402.4126    3008.3923    30.735812    30.735812    30.735812 
     200    476.83606    4874.8749     29109.12    1.0276942   -6850.8611   -9692.1551    2841.2941    30.761655    30.761655    30.761655 
     250    434.27086    1762.4336    29383.586    1.0180947   -7272.4884   -9860.1518    2587.6634    30.858035    30.858035    30.858035 
     300    398.21493    16.778593    29663.807    1.0084772   -7631.7555   -10004.575    2372.8191    30.955819    30.955819    30.955819 
     350    374.03323   -592.82468    29874.631    1.0013604   -7934.7994   -10163.529    2228.7291    31.028981    31.028981    31.028981 
     400    347.30619   -1465.8484    30009.561   0.99685807   -8191.7547   -10261.227    2069.4723    31.075626    31.075626    31.075626 
     450    348.43937   -2021.1202    30049.334   0.99553862   -8422.2937   -10498.518    2076.2245    31.089348    31.089348    31.089348 
     500    329.01888   -1003.1106    30000.113     0.997172   -8633.2292   -10593.734    1960.5048    31.072364    31.072364    31.072364 
     550    325.31392   -1099.1414    29904.401    1.0003635   -8817.9294   -10756.358    1938.4283    31.039285    31.039285    31.039285 
     600    311.39464   -751.27949    29766.519    1.0049974   -8979.4916    -10834.98    1855.4884    30.991506    30.991506    30.991506 
     650    303.43352   -253.79553     29608.11    1.0103743    -9112.398   -10920.449    1808.0509    30.936432    30.936432    30.936432 
     700    303.97446   -183.47568    29461.562    1.0154001   -9218.7031   -11029.977    1811.2741    30.885307    30.885307    30.885307 
     750    298.50071   -14.860757    29332.464    1.0198691   -9314.4361   -11093.094     1778.658    30.840129    30.840129    30.840129 
     800    292.98485    497.24122    29223.122     1.023685   -9395.9126   -11141.704     1745.791     30.80176     30.80176     30.80176 
     850    297.88251    442.93032    29147.663    1.0263352    -9455.886    -11230.86    1774.9744    30.775226    30.775226    30.775226 
     900    296.31538   -255.31182    29098.639    1.0280643   -9499.6984   -11265.335    1765.6365    30.757962    30.757962    30.757962 
     950    293.27385    393.63049    29057.455    1.0295214   -9526.3867     -11273.9    1747.5131    30.743445    30.743445    30.743445 
    1000    292.39334    777.30928    29040.522    1.0301217   -9531.9852   -11274.252    1742.2664    30.737472    30.737472    30.737472 
    1050    293.97856    943.47367    29065.756    1.0292274   -9519.2512   -11270.963    1751.7122    30.746372    30.746372    30.746372 
    1100    296.25688    1051.0875    29142.269    1.0265252   -9488.8306   -11254.118    1765.2879    30.773327    30.773327    30.773327 
    1150    300.24174     318.2444    29255.896    1.0225383   -9452.2424   -11241.275    1789.0322    30.813271    30.813271    30.813271 
    1200     306.8061    -149.1224    29369.781    1.0185732    -9423.137   -11251.284    1828.1469    30.853202    30.853202    30.853202 
    1250     306.0768    477.14528    29469.741    1.0151183   -9407.6766   -11231.478    1823.8013    30.888165    30.888165    30.888165 
    1300    304.80281   -104.36706    29570.952    1.0116439   -9413.0469   -11229.257      1816.21    30.923485    30.923485    30.923485 
    1350    299.18866   -264.18092    29657.771    1.0086825   -9428.1853   -11210.943    1782.7573    30.953719    30.953719    30.953719 
    1400    304.40322   -214.18328     29722.13    1.0064983   -9444.5465   -11258.376     1813.829    30.976093    30.976093    30.976093 
    1450    303.25191    216.61608    29767.459    1.0049656   -9472.4156   -11279.384    1806.9687    30.991832    30.991832    30.991832 
    1500    301.18767    378.19628    29817.534    1.0032779   -9505.8381   -11300.507    1794.6687    31.009201    31.009201    31.009201 
    1550      298.811   -64.694476     29880.74    1.0011557   -9531.5439   -11312.051     1780.507    31.031096    31.031096    31.031096 
    1600    292.88956   -777.66433    29930.351   0.99949622   -9542.3216   -11287.545    1745.2233     31.04826     31.04826     31.04826 
    1650     295.7225   -510.98469    29939.278   0.99919819   -9537.2149   -11299.319    1762.1037    31.051347    31.051347    31.051347 
    1700    302.28222   -370.78572    29921.817   0.99978128    -9513.646   -11314.837    1801.1907    31.045309    31.045309    31.045309 
    1750    303.82204    -86.50344    29887.807     1.000919   -9493.4675   -11303.833    1810.3659    31.033542    31.033542    31.033542 
    1800    302.16678   -391.71981     29848.54    1.0022357   -9490.0453   -11290.548    1800.5029    31.019946    31.019946    31.019946 
    1850    293.19057    558.97718    29803.063    1.0037651   -9488.6962   -11235.713    1747.0168    31.004184    31.004184    31.004184 
    1900    309.89749   -150.67497    29772.491    1.0047958   -9478.8369   -11325.404    1846.5674    30.993579    30.993579    30.993579 
    1950    311.13308    570.90694    29748.046    1.0056215   -9483.3571   -11337.287    1853.9298    30.985094    30.985094    30.985094 
    2000    309.91785    968.32233    29759.448    1.0052361   -9512.5862   -11359.275    1846.6887    30.989052    30.989052    30.989052 
    2050     299.5309    280.45129      29822.7    1.0031041   -9552.9285   -11337.725    1784.7966    31.010992    31.010992    31.010992 
    2100    288.43418   -508.40448    29899.582    1.0005248   -9582.5537   -11301.229    1718.6752    31.037617    31.037617    31.037617 
    2150    290.13143   -525.89917    29945.295   0.99899745   -9589.3389   -11318.127    1728.7886    31.053427    31.053427    31.053427 
    2200    296.28396   -353.84679    29957.793   0.99858066   -9581.1641   -11346.613    1765.4493    31.057746    31.057746    31.057746 
    2250    297.99569   -366.27252    29946.429   0.99895961   -9576.0874   -11351.736    1775.6488    31.053819    31.053819    31.053819 
    2300    297.11904    61.973148     29916.21   0.99996869   -9577.0938   -11347.519    1770.4252     31.04337     31.04337     31.04337 
    2350     304.2829    21.924911    29885.658    1.0009909   -9579.6118   -11392.724    1813.1121    31.032798    31.032798    31.032798 
    2400    298.28714    167.39985    29864.205      1.00171   -9588.5822   -11365.968    1777.3855    31.025371    31.025371    31.025371 
    2450    296.19308    9.3720464    29855.196    1.0020123   -9591.7757   -11356.683    1764.9077    31.022251    31.022251    31.022251 
    2500    302.41776    601.40195    29857.182    1.0019456   -9583.6838   -11385.682    1801.9983    31.022939    31.022939    31.022939 
    2550    301.32702    24.724233    29886.561    1.0009607   -9572.1573   -11367.656     1795.499    31.033111    31.033111    31.033111 
    2600    302.12791    209.86035    29922.639   0.99975383   -9562.4188    -11362.69    1800.2712    31.045593    31.045593    31.045593 
    2650    298.55078   -45.557207    29963.073   0.99840471   -9552.0105   -11330.967    1778.9564    31.059571    31.059571    31.059571 
    2700    294.06033   -145.60702    30000.163   0.99717033   -9538.0947   -11290.294    1752.1995    31.072381    31.072381    31.072381 
    2750    303.00842   -404.04014    30021.577   0.99645908   -9522.1205   -11327.638    1805.5179    31.079773    31.079773    31.079773 
    2800    305.80606    10.920876    30023.076   0.99640934   -9509.2736   -11331.462     1822.188     31.08029     31.08029     31.08029 
    2850    304.25502    228.79396    30025.737   0.99632102   -9508.2286   -11321.175    1812.9459    31.081208    31.081208    31.081208 
    2900    305.41833   -104.20948    30037.358   0.99593557   -9521.0487   -11340.926    1819.8776    31.085217    31.085217    31.085217 
    2950     292.8004   -667.19623    30046.047   0.99564755    -9539.571   -11284.263     1744.692    31.088215    31.088215    31.088215 
    3000    295.11511   -137.93265    30026.669    0.9962901   -9544.8755    -11303.36    1758.4845     31.08153     31.08153     31.08153 
    3050    302.52596   -21.097422    29995.459   0.99732673   -9532.6968    -11335.34    1802.6431    31.070757    31.070757    31.070757 
    3100    308.15366    653.53591    29973.913   0.99804361   -9522.1417   -11358.318    1836.1765    31.063316    31.063316    31.063316 
    3150    309.33415    581.50987    29986.757   0.99761614   -9530.0574   -11373.268    1843.2106    31.067752    31.067752    31.067752 
    3200    309.15839   -131.40535    30032.061   0.99611122   -9559.6445   -11401.808    1842.1634     31.08339     31.08339     31.08339 
    3250     291.5474   -279.15062    30081.691   0.99446778    -9592.634    -11329.86    1737.2258    31.100503    31.100503    31.100503 
    3300    287.48407    -276.2448    30113.758   0.99340884   -9610.2113   -11323.225    1713.0139     31.11155     31.11155     31.11155 
    3350    291.68085   -419.86313    30124.578   0.99305203   -9606.3049   -11344.326    1738.0209    31.115276    31.115276    31.115276 
    3400    295.78959   -469.03834    30111.479   0.99348402    -9577.035   -11339.538    1762.5035    31.110765    31.110765    31.110765 
    3450    298.12341   -331.94162    30076.239   0.99464805   -9534.7494   -11311.159    1776.4098    31.098624    31.098624    31.098624 
    3500    309.83706    123.17735     30029.27   0.99620379   -9496.4518   -11342.659    1846.2073    31.082427    31.082427    31.082427 
    3550    310.56812    258.92967    30000.992   0.99714279     -9475.02   -11325.583    1850.5634    31.072668    31.072668    31.072668 
    3600    310.54766    151.07392    29998.082   0.99723954   -9476.3415   -11326.783    1850.4415    31.071663    31.071663    31.071663 
    3650    299.93668    382.77077    30012.119   0.99677311   -9497.9818   -11285.196    1787.2145    31.076508    31.076508    31.076508 
    3700     303.7538    80.427766    30047.855   0.99558765   -9527.9348   -11337.894    1809.9593    31.088838    31.088838    31.088838 
    3750    292.65414    -198.6519     30098.13   0.99392465   -9550.0751   -11293.896    1743.8205    31.106167    31.106167    31.106167 
    3800    302.42999   -864.02773    30137.823    0.9926156   -9553.9818   -11356.053    1802.0712    31.119835    31.119835    31.119835 
    3850     294.9272   -691.76061    30139.914   0.99254674   -9550.7953    -11308.16    1757.3648    31.120555    31.120555    31.120555 
    3900    298.62331   -415.27145    30105.145   0.99369304   -9544.3002   -11323.689    1779.3886    31.108584    31.108584    31.108584 
    3950    304.30507   -424.67495    30050.322   0.99550591   -9538.7201   -11351.964    1813.2441    31.089689    31.089689    31.089689 
    4000    294.63839    -62.63183    29982.569   0.99775551   -9536.0443   -11291.688    1755.6439    31.066306    31.066306    31.066306 
    4050    300.90267    355.75919    29909.619     1.000189   -9527.6093    -11320.58    1792.9705     31.04109     31.04109     31.04109 
    4100    299.27637    630.96492    29854.257    1.0020438   -9518.3206   -11301.601    1783.2799    31.021926    31.021926    31.021926 
    4150    305.53036    304.49086    29829.028    1.0028913   -9511.1909   -11331.736    1820.5452    31.013185    31.013185    31.013185 
    4200    305.27807   -129.25592    29824.557    1.0030417   -9511.5453   -11330.587    1819.0419    31.011635    31.011635    31.011635 
    4250    297.16464    141.37815    29821.355    1.0031493   -9517.4637   -11288.161    1770.6969    31.010526    31.010526    31.010526 
    4300    297.74567    -126.3875    29817.456    1.0032805   -9523.1946   -11297.354    1774.1591    31.009174    31.009174    31.009174 
    4350    309.71708   -138.98737    29807.596    1.0036124    -9533.465   -11378.957    1845.4923    31.005755    31.005755    31.005755 
    4400    307.33371   -47.181736    29800.464    1.0038526   -9556.0251   -11387.316    1831.2907    31.003282    31.003282    31.003282 
    4450    303.60647    -71.30547    29795.153    1.0040315   -9591.0075   -11400.089    1809.0815     31.00144     31.00144     31.00144 
    4500    289.98927    721.39584    29795.103    1.0040332   -9624.0661   -11352.008    1727.9415    31.001423    31.001423    31.001423 
    4550    299.63463   -395.41991    29821.554    1.0031427    -9639.897   -11425.312    1785.4147    31.010594    31.010594    31.010594 
    4600    297.12165    101.36535    29837.715    1.0025993    -9645.729    -11416.17    1770.4408    31.016195    31.016195    31.016195 
    4650    295.31233    451.67941    29853.789    1.0020595   -9647.1867   -11406.846    1759.6597    31.021764    31.021764    31.021764 
    4700    294.74715    278.67054    29890.399    1.0008322   -9644.2823   -11400.574    1756.2919    31.034439    31.034439    31.034439 
    4750    301.64978    71.785175    29941.659   0.99911875   -9637.2311   -11434.653    1797.4223     31.05217     31.05217     31.05217 
    4800    294.41664   -452.50508    29994.775   0.99734948   -9624.9114   -11379.234    1754.3226    31.070521    31.070521    31.070521 
    4850    293.51379   -193.12178    30025.322   0.99633479   -9597.5798   -11346.523    1748.9428    31.081065    31.081065    31.081065 
    4900    301.43976    128.58795    30040.997   0.99581492   -9560.3622   -11356.533    1796.1708    31.086473    31.086473    31.086473 
    4950    308.54563   -439.82121    30064.334   0.99504191   -9527.5422   -11366.054    1838.5121    31.094521    31.094521    31.094521 
    5000    300.26148    378.54724    30083.157   0.99441934   -9510.2838   -11299.434    1789.1499    31.101008    31.101008    31.101008 
    5050    296.51961    496.68249    30115.149   0.99336294   -9501.1066    -11267.96    1766.8534    31.112029    31.112029    31.112029 
    5100     306.1672    -290.2892     30160.86   0.99185743   -9497.0422   -11321.382    1824.3399    31.127763    31.127763    31.127763 
    5150    303.89603    -517.0606    30191.144    0.9908625   -9506.0987   -11316.906    1810.8068    31.138178    31.138178    31.138178 
    5200    290.58744    -261.3277    30196.911   0.99067328   -9525.9722   -11257.478    1731.5057     31.14016     31.14016     31.14016 
    5250    296.03881   -655.69466    30182.281    0.9911535   -9536.6323   -11300.621    1763.9885     31.13513     31.13513     31.13513 
    5300    300.80023   -420.15599    30133.896   0.99274496   -9537.8175   -11330.178      1792.36    31.118484    31.118484    31.118484 
    5350    307.63865   -129.55048    30063.704   0.99506278   -9543.2709   -11376.379    1833.1077    31.094303    31.094303    31.094303 
    5400     300.5928   -50.869404    29986.779   0.99761543   -9561.7986   -11352.923    1791.1241     31.06776     31.06776     31.06776 
    5450     312.2119    122.12446    29905.598    1.0003235    -9590.317   -11450.675    1860.3581    31.039699    31.039699    31.039699 
    5500    306.20538    405.43097    29844.242      1.00238   -9626.0657   -11450.633    1824.5674    31.018457    31.018457    31.018457 
    5550    298.44016    801.79963    29813.869    1.0034012      -9658.6   -11436.897    1778.2973     31.00793     31.00793     31.00793 
    5600    294.45182    280.52477    29820.108    1.0031913   -9675.3729   -11429.905    1754.5322    31.010093    31.010093    31.010093 
    5650    292.92549    5.7554018    29846.051    1.0023193   -9672.3313   -11417.769    1745.4373    31.019083    31.019083    31.019083 
    5700     298.9512    2.7082101    29874.638    1.0013602   -9654.7357   -11436.078    1781.3423    31.028984    31.028984    31.028984 
    5750     303.6665   -120.69786    29905.867    1.0003145   -9624.4663   -11433.905    1809.4391    31.039792    31.039792    31.039792 
    5800    305.47224    120.27295    29940.609   0.99915377   -9592.3547   -11412.554    1820.1989    31.051807    31.051807    31.051807 
    5850    300.15351    329.30633    29988.225   0.99756731   -9573.6951   -11362.202    1788.5065    31.068259    31.068259    31.068259 
    5900    296.80696   -6.0074387    30045.416   0.99566844   -9564.0282   -11332.594    1768.5656    31.087997    31.087997    31.087997 
    5950      294.443   -87.357065    30099.195   0.99388945   -9553.2446   -11307.724    1754.4796    31.106534    31.106534    31.106534 
    6000    308.32234   -900.02983    30140.847   0.99251599   -9540.1716   -11377.353    1837.1816    31.120876    31.120876    31.120876 
    6050     304.6214    -550.1282    30149.517    0.9922306   -9538.3668   -11353.496     1815.129     31.12386     31.12386     31.12386 
    6100    307.28707   -930.85413    30131.139   0.99283577   -9540.5792   -11371.592    1831.0128    31.117535    31.117535    31.117535 
    6150    302.67961   -20.807104    30076.148   0.99465106   -9548.3732   -11351.932    1803.5586    31.098593    31.098593    31.098593 
    6200    302.03829    173.21392    30020.497   0.99649493   -9558.6644   -11358.402    1799.7372      31.0794      31.0794      31.0794 
    6250    301.81761    245.74835    29977.082   0.99793812   -9572.6824   -11371.105    1798.4223    31.064411    31.064411    31.064411 
    6300    311.91394   -291.34738    29942.671   0.99908499   -9597.7922   -11456.375    1858.5827     31.05252     31.05252     31.05252 
    6350    304.66272   -153.84576    29909.374    1.0001972   -9635.5573   -11450.933    1815.3752    31.041005    31.041005    31.041005 
    6400    298.82703    164.60949    29879.633    1.0011928   -9662.6451   -11443.248    1780.6025    31.030713    31.030713    31.030713 
    6450    298.32247    84.393342    29859.136    1.0018801   -9674.0164   -11451.612     1777.596    31.023616    31.023616    31.023616 
    6500    299.12449   -70.142894    29848.634    1.0022326   -9671.5664   -11453.941    1782.3749    31.019978    31.019978    31.019978 
    6550    297.76359   -340.11776    29837.342    1.0026119   -9661.5308   -11435.797    1774.2658    31.016066    31.016066    31.016066 
    6600     298.0878    35.505689    29813.596    1.0034104   -9648.3689   -11424.567    1776.1977    31.007836    31.007836    31.007836 
    6650    297.36421    429.67838    29795.626    1.0040156    -9639.013   -11410.899    1771.8861    31.001605    31.001605    31.001605 
    6700    303.91086    5.1283998    29796.025    1.0040021   -9629.6682   -11440.563    1810.8952    31.001743    31.001743    31.001743 
    6750    292.70054    404.01561    29799.794    1.0038751   -9623.1622   -11367.259    1744.0969     31.00305     31.00305     31.00305 
    6800    300.48264   -12.897417    29811.501    1.0034809   -9609.9362   -11400.404    1790.4677    31.007109    31.007109    31.007109 
    6850    308.44678    6.0999296    29826.861    1.0029642   -9575.4727   -11413.396    1837.9231    31.012434    31.012434    31.012434 
    6900    309.21361    882.06168    29853.783    1.0020597   -9530.3258   -11372.818    1842.4924    31.021762    31.021762    31.021762 
    6950     310.9903    409.57097    29928.715   0.99955086   -9505.7823   -11358.861     1853.079    31.047695    31.047695    31.047695 
    7000    301.13122    366.56162    30037.072   0.99594505   -9508.5254   -11302.858    1794.3323    31.085119    31.085119    31.085119 
    7050    302.75239    129.18934    30159.952   0.99188728   -9524.7354   -11328.728    1803.9923     31.12745     31.12745     31.12745 
    7100    299.16202   -404.22723    30282.768   0.98786454   -9551.1075   -11333.706    1782.5986    31.169645    31.169645    31.169645 
    7150    295.81205   -857.30653    30379.477   0.98471982   -9581.8095   -11344.447    1762.6373     31.20279     31.20279     31.20279 
    7200    293.95512    -1510.989    30421.859   0.98334797   -9608.7594   -11360.332    1751.5725    31.217293    31.217293    31.217293 
    7250    293.99445   -1190.8367     30386.31   0.98449837   -9621.2279   -11373.035    1751.8069    31.205129    31.205129    31.205129 
    7300    293.58132   -340.99245    30291.199    0.9875896   -9611.8441   -11361.189    1749.3452    31.172537    31.172537    31.172537 
    7350    299.89272   -263.31239    30179.942    0.9912303   -9555.6079    -11342.56    1786.9525    31.134326    31.134326    31.134326 
    7400    304.08277   -202.29357    30066.069   0.99498451   -9512.6929   -11324.612    1811.9195    31.095118    31.095118    31.095118 
    7450    308.28413    202.42807    29954.241   0.99869909   -9494.2745   -11331.228    1836.9539    31.056519    31.056519    31.056519 
    7500    306.95933    558.28457     29867.21    1.0016092   -9492.4428   -11321.503      1829.06    31.026412    31.026412    31.026412 
    7550    307.70468    357.20427    29818.439    1.0032474   -9507.4835   -11340.985    1833.5012    31.009515    31.009515    31.009515 
    7600    298.94587    616.30818    29802.113     1.003797   -9535.9131   -11317.224    1781.3106    31.003854    31.003854    31.003854 
    7650    298.98711    410.24609    29819.913    1.0031979   -9561.5919   -11343.148    1781.5563    31.010025    31.010025    31.010025 
    7700    296.00929    219.78055    29855.788    1.0019924   -9583.0151   -11346.828    1763.8126    31.022456    31.022456    31.022456 
    7750    292.89153    232.53887    29897.347    1.0005996   -9599.3701   -11344.605     1745.235    31.036844    31.036844    31.036844 
    7800    290.81879   -499.75847     29940.53   0.99915641   -9605.8151   -11338.699    1732.8843     31.05178     31.05178     31.05178 
    7850    299.48767   -1270.6675    29955.396   0.99866058   -9602.3555   -11386.895     1784.539    31.056918    31.056918    31.056918 
    7900    298.83326   -214.84519    29919.313   0.99986496   -9585.9365   -11366.576    1780.6396    31.044443    31.044443    31.044443 
    7950    299.72201     171.3074    29865.997    1.0016499   -9554.3983   -11340.334    1785.9353    31.025992    31.025992    31.025992 
    8000    307.53458    396.49836    29815.293    1.0033533   -9525.9497   -11358.437    1832.4876    31.008424    31.008424    31.008424 
    8050    310.27638    957.13501    29788.204    1.0042657   -9520.7357   -11369.561    1848.8251     30.99903     30.99903     30.99903 
    8100    304.87633    262.65201    29810.354    1.0035195   -9543.1644   -11359.812    1816.6481    31.006712    31.006712    31.006712 
    8150    297.92663   -34.974499    29852.448    1.0021045     -9577.91   -11353.147    1775.2373    31.021299    31.021299    31.021299 
    8200    298.14898   -638.18928    29887.366    1.0009337   -9601.7243   -11378.287    1776.5622     31.03339     31.03339     31.03339 
    8250    293.27136    109.60265    29896.139      1.00064   -9607.9456   -11355.444    1747.4982    31.036426    31.036426    31.036426 
    8300    295.31476    262.11864    29905.479    1.0003275   -9599.2977   -11358.972    1759.6741    31.039657    31.039657    31.039657 
    8350    295.52401    272.85189    29924.708   0.99968472   -9583.2869   -11344.208     1760.921    31.046309    31.046309    31.046309 
    8400    302.78333   -185.20917    29946.582   0.99895449   -9561.0602   -11365.237    1804.1766    31.053872    31.053872    31.053872 
    8450    307.21822    145.64497    29960.857   0.99847855   -9521.3915   -11351.994    1830.6026    31.058805    31.058805    31.058805 
    8500    304.35379    205.36483    29976.866   0.99794532   -9483.5291   -11297.064    1813.5344    31.064336    31.064336    31.064336 
    8550    305.65344    592.08701    30002.366   0.99709713   -9467.4749   -11288.753    1821.2786    31.073142    31.073142    31.073142 
    8600    302.77781   -39.499208    30056.928   0.99528712   -9458.7553   -11262.899    1804.1437    31.091967    31.091967    31.091967 
    8650    298.57111   -436.44273    30111.228   0.99349228   -9448.9507   -11228.028    1779.0775    31.110679    31.110679    31.110679 
    8700    299.69893    76.855118    30136.103   0.99267222   -9434.4763   -11220.274    1785.7978    31.119244    31.119244    31.119244 
    8750    307.44004   -355.11062    30147.427   0.99229937   -9418.0393   -11249.964    1831.9243    31.123141    31.123141    31.123141 
    8800    307.90899   -262.63416    30141.652   0.99248949   -9419.9047   -11254.623    1834.7186    31.121153    31.121153    31.121153 
    8850    301.80374    165.89129    30122.093   0.99313395    -9456.341   -11254.681    1798.3396     31.11442     31.11442     31.11442 
    8900    297.70096   -29.799113    30104.859   0.99370247   -9504.4926   -11278.385    1773.8926    31.108485    31.108485    31.108485 
    8950    301.71046    439.09951    30085.428   0.99434426   -9537.8866    -11335.67    1797.7838    31.101791    31.101791    31.101791 
    9000    299.07934    520.27278    30087.272   0.99428334   -9559.5166   -11341.623    1782.1059    31.102426    31.102426    31.102426 
    9050    302.53249    77.539027    30110.114   0.99352906   -9573.7119   -11376.394     1802.682    31.110295    31.110295    31.110295 
    9100    303.25211    412.94565    30144.848   0.99238427   -9589.2661   -11396.236      1806.97    31.122253    31.122253    31.122253 
    9150    303.78133   -263.48363    30201.849   0.99051131   -9610.2893   -11420.413    1810.1234    31.141857    31.141857    31.141857 
    9200    294.89476   -17.730119    30249.537   0.98894976   -9639.5596   -11396.731    1757.1715     31.15824     31.15824     31.15824 
    9250    296.23856    -266.8166    30285.689   0.98776927   -9656.4351   -11421.614    1765.1787    31.170647    31.170647    31.170647 
    9300    291.68133     211.9083    30309.756   0.98698494   -9651.0944   -11389.118    1738.0239    31.178902    31.178902    31.178902 
    9350     302.6956    -131.9843    30337.397   0.98608569   -9625.0829   -11428.737    1803.6539    31.188377    31.188377    31.188377 
    9400    297.85418   -60.123348    30369.457   0.98504471   -9565.1758   -11339.981    1774.8056    31.199359    31.199359    31.199359 
    9450     300.8352    288.93271    30401.241   0.98401487   -9519.6441   -11312.212    1792.5684     31.21024     31.21024     31.21024 
    9500     302.6048   -274.84278    30437.243   0.98285094   -9504.7088   -11307.822    1803.1128    31.222555    31.222555    31.222555 
    9550    300.59436   -981.03134    30451.472   0.98239169   -9501.5277   -11292.661    1791.1334    31.227419    31.227419    31.227419 
    9600    298.44334   -164.01253    30419.717   0.98341721   -9495.4132   -11273.729    1778.3162    31.216561    31.216561    31.216561 
    9650    304.06258    299.14014    30377.168   0.98479467   -9486.5746   -11298.374    1811.7992       31.202       31.202       31.202 
    9700    299.17558      366.974    30347.263   0.98576511   -9491.9091   -11274.588    1782.6794    31.191757    31.191757    31.191757 
    9750    304.66386     3.604291    30324.459   0.98650639   -9517.7432   -11333.125     1815.382    31.183943    31.183943    31.183943 
    9800    303.78353   -232.54306        30298   0.98736791   -9560.8326   -11370.969    1810.1365     31.17487     31.17487     31.17487 
    9850    302.63746    -23.80338    30265.874   0.98841595   -9592.2833   -11395.591    1803.3075    31.163848    31.163848    31.163848 
    9900     296.9991    289.15145    30240.942   0.98923085   -9608.1889   -11377.899    1769.7105    31.155288    31.155288    31.155288 
    9950    295.31269   -274.10418    30227.537   0.98966956   -9610.8987    -11370.56    1759.6618    31.150684    31.150684    31.150684 
SHAKE stats (type/ave/delta) on step 10000
  1 0.957192 1.33694e-06
  1 104.52 0.000137479
   10000    301.10587   -454.81456    30200.048   0.99057036   -9608.5707   -11402.752    1794.1813    31.141238    31.141238    31.141238 
   10050    296.26225   -12.203771    30154.327   0.99207232   -9604.5256   -11369.846    1765.3199    31.125515    31.125515    31.125515 
   10100    297.90094    159.27673    30103.603   0.99374393   -9599.0727   -11374.157    1775.0843    31.108053    31.108053    31.108053 
   10150    297.25556    49.772005    30050.171    0.9955109   -9582.1978   -11353.436    1771.2387    31.089637    31.089637    31.089637 
   10200    303.86098   -55.527605    29995.552   0.99732363   -9538.1038   -11348.702    1810.5979    31.070789    31.070789    31.070789 
   10250    309.24403    1181.6413    29952.678   0.99875119   -9495.3203   -11337.994    1842.6736    31.055979    31.055979    31.055979 
   10300    315.00079    1515.5486    29965.777   0.99831461    -9493.781   -11370.757    1876.9761    31.060505    31.060505    31.060505 
   10350    303.54903      252.138     30050.04   0.99551524   -9526.8515   -11335.591    1808.7392    31.089592    31.089592    31.089592 
   10400    292.44361   -174.28901    30159.469   0.99190318   -9553.2722   -11295.838     1742.566    31.127284    31.127284    31.127284 
   10450    296.56163   -220.90058    30258.508   0.98865657   -9553.0753   -11320.179    1767.1038    31.161319    31.161319    31.161319 
   10500    299.86107   -861.02418    30335.274   0.98615471    -9546.186    -11332.95     1786.764    31.187649    31.187649    31.187649 
   10550    305.87142   -787.88424    30371.276   0.98498572   -9534.3819   -11356.959    1822.5775    31.199982    31.199982    31.199982 
   10600    301.96362   -192.22146    30368.951   0.98506113   -9522.0495   -11321.342    1799.2923    31.199186    31.199186    31.199186 
   10650    298.18007   -60.597285    30352.408   0.98559801   -9505.9616   -11282.709    1776.7475     31.19352     31.19352     31.19352 
   10700    301.38161   -16.474734    30325.452   0.98647409   -9463.9634   -11259.788    1795.8243    31.184283    31.184283    31.184283 
   10750    315.53792    197.71061    30297.518    0.9873836   -9421.4845   -11301.661    1880.1766    31.174705    31.174705    31.174705 
   10800    307.14784    672.30724    30292.643   0.98754252   -9413.4874   -11243.671    1830.1832    31.173033    31.173033    31.173033 
   10850    307.37199   -349.80969     30318.07   0.98671429   -9430.9434   -11262.462    1831.5188    31.181752    31.181752    31.181752 
   10900    302.76911   -543.42759    30331.396   0.98628077   -9462.0499   -11266.142    1804.0919     31.18632     31.18632     31.18632 
   10950    300.75419   -1015.2338    30309.415   0.98699604   -9487.8919   -11279.978    1792.0857    31.178785    31.178785    31.178785 
   11000    304.71885   -400.08192    30241.843   0.98920139   -9505.1127   -11320.822    1815.7097    31.155597    31.155597    31.155597 
   11050    296.71477   -124.96061    30152.954   0.99211748   -9518.3576   -11286.374    1768.0163    31.125043    31.125043    31.125043 
   11100    298.21446   -40.504348    30054.249   0.99537583   -9523.2572    -11300.21    1776.9524    31.091043    31.091043    31.091043 
   11150    295.20192    392.36867    29956.184   0.99863431   -9523.6134   -11282.615    1759.0018     31.05719     31.05719     31.05719 
   11200    307.05446    200.46381    29872.594    1.0014287   -9530.4443   -11360.071    1829.6268    31.028276    31.028276    31.028276 
   11250    300.15554    421.09848    29799.687    1.0038788    -9554.698   -11343.217    1788.5186    31.003013    31.003013    31.003013 
   11300    308.24606    820.72545     29743.92    1.0057609   -9585.7476   -11422.475    1836.7271    30.983661    30.983661    30.983661 
   11350    305.96198    400.27731    29728.763    1.0062737   -9613.8817   -11436.999    1823.1171    30.978397    30.978397    30.978397 
   11400     295.7484    878.78133    29749.053    1.0055874   -9624.9066   -11387.165     1762.258    30.985444    30.985444    30.985444 
   11450    301.50856    263.39886    29806.936    1.0036346   -9624.9227   -11421.503    1796.5808    31.005526    31.005526    31.005526 
   11500    294.01775   -323.13045    29875.315    1.0013375   -9620.3895   -11372.335    1751.9457    31.029218    31.029218    31.029218 
   11550     299.4542   -748.80986    29924.245   0.99970018   -9596.8259   -11381.166    1784.3396    31.046149    31.046149    31.046149 
   11600    301.00038   -427.57508    29942.288   0.99909775   -9561.6227   -11355.175    1793.5527    31.052387    31.052387    31.052387 
   11650    302.08086   -294.50579    29937.084   0.99927143   -9530.7975   -11330.788    1799.9909    31.050588    31.050588    31.050588 
   11700    300.24898   -492.18433    29917.802   0.99991545   -9512.9829   -11302.058    1789.0754    31.043921    31.043921    31.043921 
   11750    304.95273    33.041588    29879.949    1.0011822     -9507.02   -11324.123    1817.1033    31.030822    31.030822    31.030822 
   11800    306.40154    664.16193    29846.697    1.0022976   -9512.6402   -11338.376    1825.7363    31.019307    31.019307    31.019307 
   11850    305.14747    241.11795    29845.744    1.0023296   -9533.5252   -11351.789    1818.2637    31.018977    31.018977    31.018977 
   11900    300.50504    130.06341    29864.492    1.0017004    -9560.031   -11350.632    1790.6011    31.025471    31.025471    31.025471 
   11950    295.80643    498.43175    29887.193    1.0009395   -9580.7211   -11343.325    1762.6038     31.03333     31.03333     31.03333 
   12000    296.03251    314.42433    29918.142    0.9999041   -9591.9613   -11355.912    1763.9509    31.044038    31.044038    31.044038 
   12050    296.60107   -75.019988    29953.652   0.99871872   -9597.4451   -11364.784    1767.3388    31.056315    31.056315    31.056315 
   12100    294.37422   -62.697147    29985.199   0.99766797   -9593.1971   -11347.267    1754.0698    31.067214    31.067214    31.067214 
   12150    295.32334   -615.58256    30005.459   0.99699436   -9585.6251    -11345.35    1759.7253     31.07421     31.07421     31.07421 
   12200    297.25065   -478.31639    29994.384   0.99736246   -9568.2472   -11339.457    1771.2094    31.070386    31.070386    31.070386 
   12250    299.75701    97.277391    29957.152   0.99860204   -9547.4816   -11333.625    1786.1439    31.057525    31.057525    31.057525 
   12300    301.55156    487.54179     29926.42   0.99962753   -9535.2585   -11332.095     1796.837    31.046901    31.046901    31.046901 
   12350    301.11849   -185.39713    29911.126    1.0001387   -9531.0446   -11325.301    1794.2564    31.041611    31.041611    31.041611 
   12400    296.61575   -97.816931    29889.067    1.0008768   -9542.5426   -11309.969    1767.4262    31.033978    31.033978    31.033978 
   12450    301.22972   -410.95952     29857.98    1.0019189   -9579.3699   -11374.289    1794.9193    31.023215    31.023215    31.023215 
   12500    292.97549     6.992496    29818.807    1.0032351   -9622.2991   -11368.034    1745.7353    31.009642    31.009642    31.009642 
   12550     287.5981   -547.09052    29776.105    1.0046738   -9642.9299   -11356.623    1713.6933    30.994833    30.994833    30.994833 
   12600    298.88393   -490.93635    29707.831    1.0069827   -9639.8353   -11420.777    1780.9415    30.971125    30.971125    30.971125 
   12650    297.44703    200.55704     29624.64    1.0098105   -9615.3298   -11387.709    1772.3796    30.942189    30.942189    30.942189 
   12700    304.04355    299.07947    29552.558    1.0122736    -9580.956   -11392.642    1811.6858    30.917072    30.917072    30.917072 
   12750    304.21313     437.4229    29503.862    1.0139443   -9557.8864   -11370.583    1812.6963    30.900081    30.900081    30.900081 
   12800    308.79788    740.30657    29483.461    1.0146459   -9553.2585   -11393.274    1840.0152    30.892958    30.892958    30.892958 
   12850    305.81594     180.2464    29499.058    1.0141094    -9567.458   -11389.705    1822.2469    30.898404    30.898404    30.898404 
   12900    302.35462    476.90151    29533.045    1.0129424   -9589.6678    -11391.29    1801.6221    30.910266    30.910266    30.910266 
   12950    294.05191    43.516867    29589.005    1.0110267   -9606.7996   -11358.949    1752.1493    30.929777    30.929777    30.929777 
   13000    301.20714    226.88219    29650.405     1.008933   -9612.2039   -11406.989    1794.7847    30.951156    30.951156    30.951156 
   13050    298.77706    698.24387    29728.968    1.0062668   -9615.3076   -11395.612    1780.3047    30.978469    30.978469    30.978469 
   13100    304.65035    -10.06587    29837.594    1.0026034    -9620.568    -11435.87    1815.3015    31.016153    31.016153    31.016153 
   13150    292.57406   -482.30774    29949.359   0.99886188   -9625.4466    -11368.79    1743.3433    31.054831    31.054831    31.054831 
   13200    302.38877   -1084.2535    30027.456   0.99626398   -9620.3869   -11422.212    1801.8256    31.081801    31.081801    31.081801 
   13250    304.72829   -65.696218    30055.938    0.9953199   -9615.4167   -11431.183    1815.7659    31.091625    31.091625    31.091625 
   13300    292.25754    378.97378    30073.693   0.99473227   -9616.6005   -11358.058    1741.4573    31.097747    31.097747    31.097747 
   13350    301.69093   -663.90681    30088.064   0.99425715   -9614.5468   -11412.214    1797.6675    31.102699    31.102699    31.102699 
   13400    296.96339     539.9432    30077.206    0.9946161   -9606.0459   -11375.544    1769.4977    31.098957    31.098957    31.098957 
   13450    304.03126    25.572284    30082.758   0.99443252   -9582.0557   -11393.668    1811.6126    31.100871    31.100871    31.100871 
   13500    301.31242    61.461324     30091.59   0.99414065   -9559.5131   -11354.925     1795.412    31.103914    31.103914    31.103914 
   13550      300.821   -495.48095    30091.129   0.99415587   -9540.1764    -11332.66    1792.4838    31.103756    31.103756    31.103756 
   13600    303.74145   -871.42124    30063.805   0.99505944   -9516.5658   -11326.452    1809.8857    31.094338    31.094338    31.094338 
   13650    310.45931   -71.682019    30007.438   0.99692861    -9495.618   -11345.533     1849.915    31.074893    31.074893    31.074893 
   13700    308.87105   -19.673159    29958.513   0.99855665   -9486.8824   -11327.334    1840.4512    31.057995    31.057995    31.057995 
   13750    311.58572    357.20158     29921.23    0.9998009   -9498.8954   -11355.522    1856.6269    31.045106    31.045106    31.045106 
   13800     293.4265    571.59741     29903.76     1.000385    -9551.338   -11299.761    1748.4227    31.039063    31.039063    31.039063 
   13850    290.84684    153.23425    29904.783    1.0003508   -9589.1272   -11322.179    1733.0514    31.039417    31.039417    31.039417 
   13900    300.01708   -307.61282    29904.713    1.0003531   -9592.7547   -11380.448    1787.6935    31.039393    31.039393    31.039393 
   13950    300.52073    696.25977    29896.376    1.0006321   -9589.4152    -11380.11    1790.6946    31.036508    31.036508    31.036508 
   14000      306.997    367.91701    29912.184    1.0001033   -9589.0804   -11418.365    1829.2844    31.041977    31.041977    31.041977 
   14050    303.54906    130.98256    29947.733   0.99891612   -9607.2325   -11415.972    1808.7394    31.054269    31.054269    31.054269 
   14100    298.58264    33.703212    29991.817   0.99744782   -9644.2633    -11423.41    1779.1462      31.0695      31.0695      31.0695 
   14150    293.05378   -365.79294    30036.046   0.99597905   -9671.3003   -11417.502    1746.2018    31.084765    31.084765    31.084765 
   14200    297.76401   -369.89391    30065.173   0.99501415   -9670.3439   -11444.612    1774.2683     31.09481     31.09481     31.09481 
   14250     303.6531    533.74217    30082.889   0.99442819   -9662.6175   -11471.977    1809.3593    31.100916    31.100916    31.100916 
   14300    293.13938    281.40524    30128.195    0.9929328   -9659.0672   -11405.779    1746.7118    31.116521    31.116521    31.116521 
   14350    293.32638   -161.96113    30182.932    0.9911321    -9650.485   -11398.311    1747.8261    31.135354    31.135354    31.135354 
   14400    297.52515   -502.35638    30220.951   0.98988523   -9633.7225   -11406.568     1772.845    31.148421    31.148421    31.148421 
   14450    301.27392    295.25866    30234.053   0.98945627   -9617.2504   -11412.433    1795.1826    31.152922    31.152922    31.152922 
   14500    300.02246   -409.07152    30253.997   0.98880399   -9599.2991   -11387.025    1787.7256    31.159771    31.159771    31.159771 
   14550    299.85003   -750.62792    30259.393   0.98862767   -9582.3991   -11369.097    1786.6982    31.161623    31.161623    31.161623 
   14600    298.16911   -647.82042     30227.95   0.98965603   -9571.9005   -11348.583    1776.6822    31.150826    31.150826    31.150826 
   14650    298.08256   -23.802701    30161.749   0.99182819   -9559.8716   -11336.038    1776.1665    31.128068    31.128068    31.128068 
   14700     297.8945    234.09949    30086.757   0.99430035   -9541.6863   -11316.732    1775.0459    31.102249    31.102249    31.102249 
   14750    300.91642    5.7436473    30020.461   0.99649613   -9498.2612   -11291.314    1793.0524    31.079387    31.079387    31.079387 
   14800    311.66589    45.208204    29956.989   0.99860747   -9450.5483   -11307.653    1857.1046    31.057468    31.057468    31.057468 
   14850    301.74848    1012.8342    29907.879    1.0002472   -9433.1973   -11231.208    1798.0104    31.040488    31.040488    31.040488 
   14900    308.42929    772.44641    29908.467    1.0002276    -9432.285   -11270.104    1837.8189    31.040691    31.040691    31.040691 
   14950    304.83169    356.52815    29953.658    0.9987185   -9453.5947   -11269.977    1816.3821    31.056317    31.056317    31.056317 
   15000    298.13425   -194.85752    30021.913   0.99644792   -9485.5545   -11262.029    1776.4744    31.079889    31.079889    31.079889 
   15050      298.006    18.076583    30082.386   0.99444481   -9508.5199    -11284.23    1775.7103    31.100743    31.100743    31.100743 
   15100     292.3953   -83.683991    30136.281   0.99266638   -9518.5401   -11260.818    1742.2781    31.119305    31.119305    31.119305 
   15150    304.63352    -555.9993    30179.001   0.99126121   -9518.7068   -11333.908    1815.2013    31.134002    31.134002    31.134002 
   15200    301.46374    190.23418    30199.586   0.99058553   -9525.2924   -11321.606    1796.3137    31.141079    31.141079    31.141079 
   15250    298.92426   -168.56209    30220.005    0.9899162   -9542.7387   -11323.921    1781.1819    31.148097    31.148097    31.148097 
   15300    296.25319   -447.50838    30223.214    0.9898111   -9566.6596   -11331.925    1765.2659    31.149199    31.149199    31.149199 
   15350    293.88448   -125.82512    30193.946   0.99077055   -9581.9662   -11333.118    1751.1516    31.139141    31.139141    31.139141 
   15400    294.52577   -95.643323    30146.595   0.99232674   -9583.3921   -11338.365    1754.9729    31.122855    31.122855    31.122855 
   15450    307.99159   -126.56742    30087.812    0.9942655   -9582.5054   -11417.716    1835.2108    31.102612    31.102612    31.102612 
   15500     296.4201     370.8526    30027.158   0.99627388   -9590.5092    -11356.77    1766.2604    31.081698    31.081698    31.081698 
   15550    299.95147    184.83833    29979.797   0.99784773   -9593.1935   -11380.496    1787.3026    31.065349    31.065349    31.065349 
   15600     295.8556    420.92885    29946.277   0.99896466   -9592.6594   -11355.556    1762.8968    31.053766    31.053766    31.053766 
   15650    304.69872    20.577355    29932.324   0.99943035   -9594.3594   -11409.949    1815.5898    31.048942    31.048942    31.048942 
   15700    303.69348    167.15142    29931.077   0.99947197   -9598.7819   -11408.382    1809.5999    31.048511    31.048511    31.048511 
   15750    295.07502    209.66965    29943.033   0.99907289   -9612.3743    -11370.62    1758.2456    31.052645    31.052645    31.052645 
   15800    298.16427   -213.58314    29963.562   0.99838842   -9623.4567    -11400.11    1776.6534     31.05974     31.05974     31.05974 
   15850    303.93961   -368.94937    29971.756   0.99811546   -9634.0865   -11445.153    1811.0665    31.062571    31.062571    31.062571 
   15900    297.31621    -173.6484    29962.312   0.99843007   -9644.9225   -11416.523    1771.6001    31.059308    31.059308    31.059308 
   15950    297.46682   -90.670485    29934.329    0.9993634    -9653.033   -11425.531    1772.4975    31.049636    31.049636    31.049636 
   16000    296.98041   -248.18416    29892.908    1.0007482   -9660.7527   -11430.352    1769.5991    31.035308    31.035308    31.035308 
   16050    298.39836     -350.328    29840.019    1.0025219   -9660.5373   -11438.585    1778.0482    31.016993    31.016993    31.016993 
   16100    290.56997     731.9712    29774.046    1.0047433   -9651.4637   -11382.865    1731.4017    30.994118    30.994118    30.994118 
   16150    303.15058    435.38428    29737.606    1.0059745    -9622.709   -11429.074    1806.3649    30.981469    30.981469    30.981469 
   16200    301.10278    737.46953    29734.094    1.0060933   -9588.4927   -11382.656    1794.1629    30.980249    30.980249    30.980249 
   16250    309.30075    559.95821    29761.547    1.0051652   -9570.7677   -11413.779    1843.0116    30.989781    30.989781    30.989781 
   16300    300.59988     578.8222    29817.539    1.0032777   -9578.9601   -11370.126    1791.1663    31.009202    31.009202    31.009202 
   16350    294.53561    142.29907    29896.298    1.0006347   -9597.5485    -11352.58    1755.0315    31.036481    31.036481    31.036481 
   16400    301.10371   -383.80622    29973.931   0.99804302   -9619.0678   -11413.236    1794.1684    31.063322    31.063322    31.063322 
   16450    298.75669    229.43277    30040.025   0.99584712   -9643.0399   -11423.223    1780.1833    31.086138    31.086138    31.086138 
   16500    297.75861   -372.97695    30108.195   0.99359237   -9682.1757   -11456.412    1774.2362    31.109634    31.109634    31.109634 
   16550    290.79415   -1122.1795    30150.048   0.99221309   -9738.0274   -11470.765    1732.7374    31.124043    31.124043    31.124043 
   16600    292.97288   -692.51902    30142.523   0.99246081   -9749.8835   -11495.603    1745.7197    31.121453    31.121453    31.121453 
   16650    298.35624   -899.88911    30098.545   0.99391092   -9729.7042   -11507.501    1777.7972     31.10631     31.10631     31.10631 
   16700    298.61486    126.64049    30016.063   0.99664212   -9708.5041   -11487.842    1779.3382     31.07787     31.07787     31.07787 
   16750    295.22966    455.27128    29934.678   0.99935176   -9687.9157   -11447.083    1759.1671    31.049756    31.049756    31.049756 
   16800    300.25131    240.95752    29873.958     1.001383   -9663.2054   -11452.295    1789.0893    31.028748    31.028748    31.028748 
   16850    300.57908    341.30276    29831.829    1.0027971    -9640.973   -11432.015    1791.0423    31.014155    31.014155    31.014155 
   16900    299.35941    147.40398    29811.422    1.0034836   -9622.9919   -11406.767    1783.7748    31.007082    31.007082    31.007082 
   16950    290.17094    622.29947    29805.312    1.0036893   -9612.2517   -11341.276    1729.0239    31.004963    31.004963    31.004963 
   17000    295.43539    635.60659    29821.489    1.0031448   -9601.3703   -11361.763    1760.3929    31.010572    31.010572    31.010572 
   17050     304.9188   -274.48408    29862.209     1.001777   -9592.1103   -11409.011    1816.9012     31.02468     31.02468     31.02468 
   17100    298.00573     14.99884    29899.316    1.0005337    -9591.349   -11367.058    1775.7086    31.037525    31.037525    31.037525 
   17150    297.71968   -314.70823    29930.966   0.99947568   -9586.4497   -11360.454    1774.0042    31.048473    31.048473    31.048473 
   17200    299.15943   -677.55026    29940.651    0.9991524   -9573.1761   -11355.759    1782.5832    31.051821    31.051821    31.051821 
   17250    305.08525   -306.87256     29918.37   0.99989649   -9523.9133   -11341.806     1817.893    31.044117    31.044117    31.044117 
   17300    311.05988    8.0565537     29874.47    1.0013658    -9467.437   -11320.931    1853.4936    31.028926    31.028926    31.028926 
   17350     310.3437    804.07716    29835.372    1.0026781     -9454.51   -11303.736    1849.2261    31.015383    31.015383    31.015383 
   17400     311.3498   -257.91239    29829.195    1.0028857   -9473.5579   -11328.779    1855.2212    31.013243    31.013243    31.013243 
   17450    300.28696   -193.73115    29816.962    1.0032971   -9513.3941   -11302.696    1789.3017    31.009003    31.009003    31.009003 
   17500    295.05071    487.28496    29791.315    1.0041609   -9549.2052   -11307.306    1758.1008    31.000109    31.000109    31.000109 
   17550    297.52778   -1.2727304    29781.004    1.0045086   -9568.9717   -11341.832    1772.8607    30.996532    30.996532    30.996532 
   17600    304.19211   -48.927129    29770.556    1.0048611   -9588.3728   -11400.944    1812.5711    30.992907    30.992907    30.992907 
   17650    290.91276    189.75017    29758.882    1.0052553   -9605.1677   -11338.612    1733.4442    30.988855    30.988855    30.988855 
   17700    299.18655    8.3905344      29750.3    1.0055453   -9612.9745   -11395.719    1782.7448    30.985876    30.985876    30.985876 
   17750    292.92018   -33.491549    29742.984    1.0057926   -9617.9864   -11363.392    1745.4057    30.983336    30.983336    30.983336 
   17800    293.86072    209.14224    29738.122     1.005957   -9611.2939   -11362.304      1751.01    30.981648    30.981648    30.981648 
   17850     297.7766    615.06951    29742.893    1.0057957   -9577.0569     -11351.4    1774.3434    30.983305    30.983305    30.983305 
   17900    303.18983    129.95354    29762.922    1.0051188     -9531.43   -11338.029    1806.5988    30.990258    30.990258    30.990258 
   17950    312.83145   -60.748846    29788.582     1.004253   -9502.5172   -11366.567    1864.0498    30.999161    30.999161    30.999161 
   18000    306.42285    242.51298    29820.835    1.0031668   -9500.8538   -11326.717    1825.8632    31.010345    31.010345    31.010345 
   18050      303.085   -382.84046    29866.101    1.0016464   -9507.4132   -11313.387    1805.9742    31.026028    31.026028    31.026028 
   18100    304.00437   -543.87138    29899.458    1.0005289   -9522.9103   -11334.363    1811.4524    31.037574    31.037574    31.037574 
   18150    299.05997   -178.87715    29910.177    1.0001704   -9546.4457   -11328.436    1781.9905    31.041283    31.041283    31.041283 
   18200    296.75836    83.651797    29906.442    1.0002953   -9573.8706   -11342.147     1768.276    31.039991    31.039991    31.039991 
   18250    294.07349   -114.05572     29901.62    1.0004566    -9609.209   -11361.487    1752.2779    31.038322    31.038322    31.038322 
   18300    296.49579   -341.65704    29894.566    1.0006927   -9661.9548   -11428.666    1766.7114    31.035881    31.035881    31.035881 
   18350    285.75759   -233.73551    29876.814    1.0012872   -9695.4492   -11398.176    1702.7264    31.029737    31.029737    31.029737 
   18400    289.79299   -397.81776    29837.929    1.0025921   -9686.2308   -11413.003    1726.7719    31.016269    31.016269    31.016269 
   18450    293.89844    552.02627    29779.143    1.0045713   -9661.4693   -11412.704    1751.2348    30.995887    30.995887    30.995887 
   18500    295.54082    333.83911    29735.407    1.0060489   -9635.0951   -11396.116    1761.0212    30.980705    30.980705    30.980705 
   18550    306.62627    337.03717    29703.796    1.0071195   -9615.9761   -11443.051    1827.0753    30.969723    30.969723    30.969723 
   18600    300.19262    52.402122    29696.971     1.007351   -9603.1234   -11391.863    1788.7396    30.967351    30.967351    30.967351 
   18650    302.88426   -104.51237    29703.756    1.0071209   -9591.1222     -11395.9    1804.7781    30.969709    30.969709    30.969709 
   18700    303.59103   -15.941267    29709.376    1.0069304   -9579.8044   -11388.794    1808.9894    30.971662    30.971662    30.971662 
   18750    299.16438    359.67658    29719.826    1.0065763   -9575.6036   -11358.216    1782.6126    30.975293    30.975293    30.975293 
   18800     299.7358   -57.782747    29748.996    1.0055893   -9578.8459   -11364.863    1786.0175    30.985424    30.985424    30.985424 
   18850    300.09055   -829.22608    29778.849    1.0045812   -9591.9988    -11380.13    1788.1313    30.995785    30.995785    30.995785 
   18900    292.96382   -398.64799    29778.036    1.0046087   -9609.9579   -11355.624    1745.6657    30.995503    30.995503    30.995503 
   18950    294.38691   -597.00862    29743.778    1.0057657   -9616.6646    -11370.81    1754.1454    30.983612    30.983612    30.983612 
   19000    298.89945   -25.731073    29678.659    1.0079725   -9605.1116   -11386.146     1781.034    30.960984    30.960984    30.960984 
   19050    302.37218    376.26902    29609.496     1.010327   -9580.0977   -11381.824    1801.7268    30.936915    30.936915    30.936915 
   19100    306.18706     129.0752    29549.269    1.0123862   -9564.3345   -11388.793    1824.4582    30.915925    30.915925    30.915925 
   19150    301.50501    150.18313    29493.182    1.0143115   -9569.0974   -11365.657    1796.5596    30.896352    30.896352    30.896352 
   19200    306.00184    248.80312    29441.421    1.0160947   -9591.7358    -11415.09    1823.3546    30.878267    30.878267    30.878267 
   19250    301.74696    297.91576    29405.026    1.0173524   -9635.1241   -11433.125    1798.0013    30.865538    30.865538    30.865538 
   19300    298.13949   -109.83866    29386.806    1.0179832    -9675.881   -11452.387    1776.5057    30.859162    30.859162    30.859162 
   19350      294.512   -335.30034    29366.815    1.0186761   -9686.5758   -11441.467    1754.8908    30.852163    30.852163    30.852163 
   19400    294.78311    984.82651    29336.141    1.0197412   -9678.1916   -11434.698    1756.5062    30.841417    30.841417    30.841417 
   19450    299.15662    1114.7389    29350.168    1.0192539   -9666.6359   -11449.202    1782.5664    30.846332    30.846332    30.846332 
   19500    303.91577    146.90425    29420.223    1.0168269   -9655.9533   -11466.878    1810.9245    30.870855    30.870855    30.870855 
   19550    296.50437    61.633924    29508.206     1.013795   -9647.8124   -11414.575    1766.7626    30.901598    30.901598    30.901598 
   19600    297.44235   -70.455404    29602.304    1.0105725    -9619.978    -11392.33    1772.3517     30.93441     30.93441     30.93441 
   19650    302.87129    -158.9773    29695.251    1.0074093   -9567.1498   -11371.851    1804.7008    30.966753    30.966753    30.966753 
   19700    306.31348   -346.19974     29783.41    1.0044274   -9530.5132   -11355.725    1825.2115    30.997367    30.997367    30.997367 
   19750    304.50443   -284.20763    29855.329    1.0020078   -9526.0311   -11340.463    1814.4321    31.022297    31.022297    31.022297 
   19800      305.407   -295.25908    29909.152    1.0002046    -9537.596   -11357.406    1819.8101    31.040928    31.040928    31.040928 
   19850    302.82357   -105.73735    29946.297     0.998964   -9565.4113   -11369.828    1804.4164    31.053773    31.053773    31.053773 
   19900    300.77937   -8.1518309    29975.735   0.99798298   -9592.0997   -11384.335    1792.2358    31.063945    31.063945    31.063945 
   19950    306.52989   -25.812781     30012.64   0.99675578   -9608.5842   -11435.085    1826.5011    31.076689    31.076689    31.076689 
SHAKE stats (type/ave/delta) on step 20000
  1 0.95721 1.67366e-06
  1 104.52 0.000122303
   20000    298.52784   -60.606805    30058.215   0.99524448    -9628.193   -11407.013    1778.8197    31.092411    31.092411    31.092411 
   20050    289.45941   -837.42748    30092.254   0.99411873   -9642.0682   -11366.852    1724.7842    31.104143    31.104143    31.104143 
   20100    296.58854   -1036.6756    30075.034   0.99468792    -9641.344   -11408.608    1767.2641    31.098209    31.098209    31.098209 
   20150    295.60508   -376.71383    30005.638    0.9969884    -9629.918   -11391.322     1761.404    31.074271    31.074271    31.074271 
   20200    300.86966   -451.16914    29910.999    1.0001429   -9599.0417   -11391.816    1792.7738    31.041567    31.041567    31.041567 
   20250    306.19918    387.95553    29801.094    1.0038314   -9539.4232   -11363.954    1824.5305    31.003501    31.003501    31.003501 
   20300    309.01134    999.73257    29711.768    1.0068493   -9509.5883   -11350.875    1841.2871    30.972493    30.972493    30.972493 
   20350    304.67471     619.7802    29670.434     1.008252   -9517.9062   -11333.353    1815.4467    30.958124    30.958124    30.958124 
   20400    303.96509      690.385    29664.279    1.0084611   -9543.3337   -11354.552    1811.2183    30.955983    30.955983    30.955983 
   20450    306.02224     123.8034    29688.764    1.0076295   -9577.1937    -11400.67    1823.4762    30.964498    30.964498    30.964498 
   20500    297.69838   -297.02263    29722.519    1.0064851   -9607.9861   -11381.863    1773.8772    30.976228    30.976228    30.976228 
   20550     294.2854   -356.09374     29740.12    1.0058895   -9622.1619   -11375.702    1753.5405    30.982342    30.982342    30.982342 
   20600    304.68575    226.80883    29743.115    1.0057882   -9622.4877       -11438    1815.5125    30.983382    30.983382    30.983382 
   20650    295.29415    380.44782    29758.055    1.0052832   -9623.7063   -11383.258    1759.5513    30.988568    30.988568    30.988568 
   20700    302.10197    93.668782    29786.032     1.004339    -9626.447   -11426.564    1800.1167    30.998277    30.998277    30.998277 
   20750     301.9106    88.581487    29820.683     1.003172   -9631.7274   -11430.704    1798.9764    31.010292    31.010292    31.010292 
   20800    297.01605   -368.56136    29858.179    1.0019122   -9645.5511   -11415.363    1769.8115    31.023284    31.023284    31.023284 
   20850     299.3462   -280.25423    29884.666    1.0010242   -9667.0079   -11450.704     1783.696    31.032455    31.032455    31.032455 
   20900     298.6613   -669.73291    29896.659    1.0006226    -9692.832   -11472.447     1779.615    31.036606    31.036606    31.036606 
   20950    291.47251   -240.35903    29889.861    1.0008502   -9704.0691   -11440.849    1736.7796    31.034253    31.034253    31.034253 
   21000    298.15912   -503.89796    29873.209    1.0014081   -9687.2704   -11463.893    1776.6226    31.028489    31.028489    31.028489 
   21050    299.09023    91.578396     29839.27    1.0025471   -9647.0317   -11429.202    1782.1708    31.016734    31.016734    31.016734 
   21100    295.57593      527.206    29811.094    1.0034946   -9607.4686   -11368.699    1761.2304    31.006968    31.006968    31.006968 
   21150    308.28623    -73.45107    29804.914    1.0037027   -9585.9114   -11422.878    1836.9665    31.004825    31.004825    31.004825 
   21200    307.21964   -33.264917    29805.397    1.0036864    -9582.788   -11413.399     1830.611    31.004993    31.004993    31.004993 
   21250    305.38865   -190.93602    29810.166    1.0035259   -9590.4107   -11410.112    1819.7008    31.006646    31.006646    31.006646 
   21300    307.75856   -422.43386    29810.346    1.0035198   -9607.5769   -11441.399    1833.8223    31.006709    31.006709    31.006709 
   21350    295.22446   -138.62162    29798.716    1.0039115   -9635.6679   -11394.804    1759.1361    31.002676    31.002676    31.002676 
   21400    296.73872   -841.10992    29776.762    1.0046516   -9653.5021   -11421.661     1768.159    30.995061    30.995061    30.995061 
   21450    294.07968   -574.24414     29718.15    1.0066331   -9661.0563   -11413.371    1752.3148    30.974711    30.974711    30.974711 
   21500    302.83825    22.910885    29636.192    1.0094169   -9649.4027   -11453.907    1804.5039     30.94621     30.94621     30.94621 
   21550    300.62236   -4.3139516    29555.381    1.0121769   -9611.5505   -11402.851    1791.3002    30.918056    30.918056    30.918056 
   21600    309.97592    263.36316    29482.642    1.0146741   -9556.3841   -11403.419    1847.0347    30.892672    30.892672    30.892672 
   21650     305.1727    177.81166     29421.15    1.0167948   -9531.8637   -11350.278     1818.414    30.871179    30.871179    30.871179 
   21700    304.06852    926.74854    29372.898    1.0184651   -9532.4611   -11344.296    1811.8346    30.854293    30.854293    30.854293 
   21750    311.34366    1108.9157    29374.838    1.0183979   -9552.6466   -11407.831    1855.1846    30.854972    30.854972    30.854972 
   21800    311.23553    340.95696    29437.118    1.0162433   -9597.0372   -11451.577    1854.5403    30.876763    30.876763    30.876763 
   21850    301.75975    374.82054      29528.5    1.0130983   -9637.2958   -11435.373    1798.0775     30.90868     30.90868     30.90868 
   21900    296.26934   -219.70491     29634.42    1.0094773   -9655.1789   -11420.541    1765.3621    30.945593    30.945593    30.945593 
   21950    297.59085   -432.36029    29732.938    1.0061324   -9660.3263   -11433.563    1773.2366    30.979847    30.979847    30.979847 
   22000    293.84167   -237.75953    29813.911    1.0033998   -9653.7951   -11404.692    1750.8965    31.007945    31.007945    31.007945 
   22050    301.78124   -808.76438    29877.686     1.001258   -9629.5162   -11427.722    1798.2055    31.030039    31.030039    31.030039 
   22100    301.91383   -323.49038    29911.968    1.0001105   -9591.8024   -11390.798    1798.9956    31.041903    31.041903    31.041903 
   22150    308.51086   -336.34891    29932.115   0.99943733   -9559.4032   -11397.708    1838.3049     31.04887     31.04887     31.04887 
   22200    303.98286   -285.17144    29942.253   0.99909891    -9551.338   -11362.662    1811.3242    31.052375    31.052375    31.052375 
   22250    302.20774    575.88451    29942.043   0.99910592   -9560.8834    -11361.63    1800.7469    31.052303    31.052303    31.052303 
   22300    299.83572    108.85757    29952.599   0.99875383   -9584.9689   -11371.582    1786.6129    31.055951    31.055951    31.055951 
   22350    299.29789   -355.83049    29959.858   0.99851185   -9612.5047   -11395.913    1783.4082     31.05846     31.05846     31.05846 
   22400    303.62061   -230.39669    29946.914   0.99894344   -9634.7756   -11443.941    1809.1657    31.053986    31.053986    31.053986 
   22450     295.3134    777.77122    29927.335   0.99959695    -9652.923   -11412.589     1759.666    31.047217    31.047217    31.047217 
   22500    299.97677    177.56587     29939.29   0.99919782   -9660.2962    -11447.75    1787.4534    31.051351    31.051351    31.051351 
   22550     294.6887   -134.30162    29966.393   0.99829408   -9665.4584   -11421.402    1755.9437    31.060718    31.060718    31.060718 
   22600    294.06024    -740.2414     29981.98   0.99777509   -9661.8074   -11414.006    1752.1989    31.066102    31.066102    31.066102 
   22650     294.8683   -128.63478    29965.971   0.99830816   -9640.8328   -11397.847    1757.0139    31.060572    31.060572    31.060572 
   22700    295.58142   -109.70019    29941.912   0.99911032   -9596.0269    -11357.29     1761.263    31.052257    31.052257    31.052257 
   22750    296.78388    558.92734    29916.653   0.99995387    -9557.984   -11326.412    1768.4281    31.043523    31.043523    31.043523 
   22800    305.85686    184.54681     29913.58    1.0000566   -9546.5733   -11369.064    1822.4907     31.04246     31.04246     31.04246 
   22850    301.96849    194.06654    29928.178   0.99956881    -9549.884   -11349.205    1799.3213    31.047509    31.047509    31.047509 
   22900    306.50446   -198.93878    29949.038   0.99887259   -9572.0728   -11398.422    1826.3495     31.05472     31.05472     31.05472 
   22950    304.00689    263.51875    29965.493   0.99832407   -9606.0837   -11417.551    1811.4674    31.060407    31.060407    31.060407 
   23000    302.55952   -67.530751    29996.088    0.9973058   -9635.0209   -11437.864     1802.843    31.070974    31.070974    31.070974 
   23050    298.46552   -178.87708    30032.422   0.99609925   -9651.9072   -11430.356    1778.4484    31.083515    31.083515    31.083515 
   23100    291.90742   -215.43546    30064.771   0.99502746   -9651.1775   -11390.549     1739.371    31.094671    31.094671    31.094671 
   23150     296.4004   -172.77688    30086.022   0.99432464   -9627.6018   -11393.745    1766.1431    31.101996    31.101996    31.101996 
   23200    296.37824    489.44836    30095.935   0.99399712    -9596.907   -11362.918     1766.011    31.105411    31.105411    31.105411 
   23250    308.16345    694.48232    30122.547   0.99311898   -9582.1472   -11418.382    1836.2348    31.114577    31.114577    31.114577 
   23300    309.77216    335.46786    30183.343    0.9911186   -9590.2745   -11436.095    1845.8206    31.135495    31.135495    31.135495 
   23350    303.13236    47.555586    30266.395   0.98839895    -9604.893   -11411.149    1806.2564    31.164026    31.164026    31.164026 
   23400    296.46433   -135.26353    30353.371   0.98556674   -9614.6049   -11381.129     1766.524     31.19385     31.19385     31.19385 
   23450     299.3269   -965.34315    30430.319   0.98307457   -9610.7737   -11394.355     1783.581    31.220187    31.220187    31.220187 
   23500    297.44013   -361.42176    30469.032    0.9818255   -9601.5986   -11373.937    1772.3384    31.233421    31.233421    31.233421 
   23550    292.55529   -639.63315    30479.303   0.98149466    -9591.768   -11334.999    1743.2315     31.23693     31.23693     31.23693 
   23600    288.62895   -479.01671    30451.084   0.98240421   -9572.2469   -11292.083    1719.8358    31.227287    31.227287    31.227287 
   23650    308.63016   -427.52104    30387.195    0.9844697   -9532.0578   -11371.074    1839.0158    31.205432    31.205432    31.205432 
   23700    311.21094    271.86362    30306.564   0.98708891   -9502.2943   -11356.688    1854.3937    31.177807    31.177807    31.177807 
   23750     311.6043    217.95321    30242.489   0.98918024   -9500.3734   -11357.111    1856.7376     31.15582     31.15582     31.15582 
   23800    301.70354    398.54828    30195.492   0.99071982   -9538.0775    -11335.82    1797.7426    31.139672    31.139672    31.139672 
   23850    303.94134    220.55535    30168.471   0.99160719   -9606.5551   -11417.632    1811.0768    31.130381    31.130381    31.130381 
   23900    301.81388    369.52275    30162.811   0.99179326   -9632.4522   -11430.852       1798.4    31.128434    31.128434    31.128434 
   23950    297.04601    202.03003    30174.786   0.99139966   -9643.4911   -11413.481      1769.99    31.132553    31.132553    31.132553 
   24000     300.5631   -341.74071    30197.016   0.99066985   -9642.9322   -11433.879    1790.9471    31.140196    31.140196    31.140196 
   24050    295.00429    153.67487    30213.598   0.99012614   -9630.1603   -11387.984    1757.8242    31.145895    31.145895    31.145895 
   24100    303.23364    -147.8071    30227.447   0.98967251   -9605.6633   -11412.523    1806.8599    31.150653    31.150653    31.150653 
   24150    303.58165   -234.48453    30232.477   0.98950783   -9584.1266    -11393.06    1808.9336    31.152381    31.152381    31.152381 
   24200    302.59185    1.2205606     30231.81   0.98952968   -9563.5034   -11366.539    1803.0357    31.152152    31.152152    31.152152 
   24250    300.07389    145.33278    30232.044   0.98952202   -9539.1929   -11327.225    1788.0321    31.152232    31.152232    31.152232 
   24300    307.83595   -124.75008    30230.753   0.98956426   -9522.9362    -11357.22    1834.2834    31.151789    31.151789    31.151789 
   24350    304.19171   -226.01443    30221.061   0.98988162   -9515.5526   -11328.121    1812.5687    31.148459    31.148459    31.148459 
   24400    306.93145    152.67376    30199.862   0.99057647   -9516.9912   -11345.885    1828.8938    31.141174    31.141174    31.141174 
   24450    305.68902   -46.297465     30182.55   0.99114465   -9538.2746   -11359.765    1821.4906    31.135223    31.135223    31.135223 
   24500     299.9284   -581.92768    30166.325   0.99167775   -9582.3204   -11369.486    1787.1651    31.129642    31.129642    31.129642 
   24550    296.37776   -447.84148    30127.253   0.99296384   -9619.0705   -11385.079    1766.0082    31.116197    31.116197    31.116197 
   24600    301.80144   -670.20456    30063.944   0.99505485   -9635.0349   -11433.361    1798.3259    31.094386    31.094386    31.094386 
   24650    302.55911   -111.11352    29979.698   0.99785104   -9642.7839   -11445.624    1802.8406    31.065314    31.065314    31.065314 
   24700    296.94347    894.61099    29899.977    1.0005116   -9655.8515   -11425.231     1769.379    31.037754    31.037754    31.037754 
   24750    299.29408    419.20414    29859.265    1.0018757   -9671.1486   -11454.534    1783.3855     31.02366     31.02366     31.02366 
   24800    296.82795   -714.85733    29843.426    1.0024075   -9675.6411   -11444.332    1768.6907    31.018174    31.018174    31.018174 
   24850    281.88074   -64.008581    29806.834    1.0036381   -9662.4486   -11342.074    1679.6257    31.005491    31.005491    31.005491 
   24900    297.90954    381.36361    29759.823    1.0052235    -9605.262   -11380.397    1775.1355    30.989182    30.989182    30.989182 
   24950    309.66609    403.64588    29727.942    1.0063015   -9570.3395   -11415.528    1845.1885    30.978112    30.978112    30.978112 
   25000    304.90653    -9.407749    29718.881    1.0066083   -9568.0635   -11384.892     1816.828    30.974964    30.974964    30.974964 
   25050    300.45543    359.44395    29719.825    1.0065763   -9577.8009   -11368.106    1790.3055    30.975293    30.975293    30.975293 
   25100    293.85269    547.10791    29738.337    1.0059498    -9592.818    -11343.78    1750.9622    30.981722    30.981722    30.981722 
   25150    297.58482    115.37768    29770.757    1.0048543   -9610.6665   -11383.867    1773.2006    30.992977    30.992977    30.992977 
   25200    299.85262    186.20839    29805.769    1.0036739   -9628.9056   -11415.619    1786.7136    31.005122    31.005122    31.005122 
   25250    296.64121    274.04195    29848.401    1.0022404   -9650.5803   -11418.158     1767.578    31.019897    31.019897    31.019897 
   25300    294.32298   -421.73813    29898.717    1.0005537   -9674.7771   -11428.542    1753.7644    31.037318    31.037318    31.037318 
   25350    293.22932   -13.146389    29933.684   0.99938492   -9690.4072   -11437.655    1747.2477    31.049413    31.049413    31.049413 
   25400    300.77328   -553.17589    29957.829   0.99857945   -9698.4476   -11490.647    1792.1995    31.057759    31.057759    31.057759 
   25450    287.56779   -68.732483    29961.375   0.99846128   -9700.8797   -11414.392    1713.5127    31.058984    31.058984    31.058984 
   25500    299.84541   -163.96516     29952.28   0.99876446   -9675.7386   -11462.409    1786.6706    31.055841    31.055841    31.055841 
   25550    305.49432    210.22087    29938.737   0.99921626   -9635.9167   -11456.247    1820.3305     31.05116     31.05116     31.05116 
   25600    305.10397    15.459266     29937.36   0.99926223   -9611.6318   -11429.636    1818.0045    31.050684    31.050684    31.050684 
   25650    308.90079   -99.580836    29942.797   0.99908077   -9600.9722   -11441.601    1840.6284    31.052563    31.052563    31.052563 
   25700    304.46704    437.05514    29952.225   0.99876629   -9611.3681   -11425.577    1814.2093    31.055822    31.055822    31.055822 
   25750    298.45992    -40.94617    29983.135   0.99773666   -9629.9572   -11408.372     1778.415    31.066501    31.066501    31.066501 
   25800    293.47983    -389.0692    30016.586   0.99662477    -9653.955   -11402.695    1748.7404     31.07805     31.07805     31.07805 
   25850    295.16061    -65.08912    30037.569   0.99592855   -9676.3352   -11435.091    1758.7556     31.08529     31.08529     31.08529 
   25900    292.73824    351.39107     30060.06   0.99518341   -9694.3891   -11438.711    1744.3216    31.093047    31.093047    31.093047 
   25950     294.1519    293.32483     30095.12   0.99402405   -9706.7791   -11459.524    1752.7451     31.10513     31.10513     31.10513 
   26000     301.2571    242.92547    30142.314   0.99246769   -9708.9062   -11503.989    1795.0824    31.121381    31.121381    31.121381 
   26050    296.43366    282.46205    30210.525   0.99022683   -9695.5054   -11461.847    1766.3413    31.144839    31.144839    31.144839 
   26100    301.11312   -294.29309    30297.183   0.98739454   -9655.0792   -11449.304    1794.2245     31.17459     31.17459     31.17459 
   26150    300.84728   -242.63562    30373.545   0.98491214    -9616.167   -11408.807    1792.6404    31.200759    31.200759    31.200759 
   26200    305.63701   -804.58227    30431.959   0.98302159   -9594.2974   -11415.478    1821.1807    31.220748    31.220748    31.220748 
   26250    304.96133    -833.7007    30453.615   0.98232255   -9586.4296   -11403.584    1817.1546    31.228152    31.228152    31.228152 
   26300    301.83413   -483.69193    30435.226   0.98291606   -9586.6616   -11385.182    1798.5207    31.221865    31.221865    31.221865 
   26350    303.27281   -47.217707    30395.169   0.98421143   -9589.4582   -11396.552    1807.0933    31.208162    31.208162    31.208162 
   26400    305.39235   -112.39603    30351.731   0.98562001   -9601.8516   -11421.575    1819.7229    31.193288    31.193288    31.193288 
   26450    295.98017    5.8736494    30303.818   0.98717833   -9638.2011    -11401.84    1763.6391    31.176866    31.176866    31.176866 
   26500    293.98613   -213.14863    30253.256   0.98882821   -9682.7157   -11434.473    1751.7573    31.159516    31.159516    31.159516 
   26550    292.73682   -479.20939    30195.815   0.99070924   -9699.8625   -11444.176    1744.3131    31.139783    31.139783    31.139783 
[...]
  143500    314.57699    475.56246    27297.359    1.0959036   -9865.3374   -11739.788    1874.4508    30.109731    30.109731    30.109731 
  143550    306.96866     383.8797    27370.342    1.0929813    -9850.778   -11679.894    1829.1155    30.136541    30.136541    30.136541 
  143600    311.03076   -199.74019    27449.407    1.0898331   -9844.2927   -11697.613    1853.3201    30.165532    30.165532    30.165532 
  143650    296.06279   -1316.2728     27513.14    1.0873086   -9883.5169   -11647.648    1764.1314     30.18886     30.18886     30.18886 
  143700    296.07541   -1742.9741    27514.522    1.0872539   -9928.2644   -11692.471    1764.2066    30.189366    30.189366    30.189366 
  143750    291.85194   -1191.9196    27439.935    1.0902093   -9947.0731   -11686.114    1739.0404    30.162062    30.162062    30.162062 
  143800    299.34913   -378.96196    27318.158    1.0950692   -9938.2574   -11721.971    1783.7135    30.117376    30.117376    30.117376 
  143850    292.87727    897.25337     27191.85    1.1001559   -9944.5154   -11689.665      1745.15    30.070888    30.070888    30.070888 
  143900    298.77069    1274.7516    27102.174    1.1037961   -9913.5575   -11693.824    1780.2668    30.037795    30.037795    30.037795 
  143950    302.36191    1336.2361     27061.17    1.1054686    -9914.308   -11715.974    1801.6655    30.022639    30.022639    30.022639 
  144000    299.52939    1145.6797    27073.388    1.1049697   -9949.1295   -11733.917    1784.7876    30.027156    30.027156    30.027156 
  144050    298.33096    222.39104     27136.24    1.1024104   -9983.0005   -11760.647    1777.6466    30.050374    30.050374    30.050374 
  144100    292.52965   -63.378752      27215.6    1.0991958   -10005.635   -11748.714    1743.0786     30.07964     30.07964     30.07964 
  144150    291.15877    192.10785    27288.897    1.0962434   -10017.208   -11752.118    1734.9101    30.106619    30.106619    30.106619 
  144200    291.23098    138.81205    27359.455    1.0934163   -10003.106   -11738.447    1735.3403    30.132545    30.132545    30.132545 
  144250    291.79096   -274.52037    27421.355     1.090948   -9992.2938   -11730.971    1738.6771    30.155253    30.155253    30.155253 
  144300    300.48747    192.33062    27466.335    1.0891614   -9941.8227   -11732.319    1790.4964    30.171732    30.171732    30.171732 
  144350    301.47287    77.744062    27511.189    1.0873857   -9906.0385   -11702.407    1796.3681    30.188147    30.188147    30.188147 
  144400    306.41331   -18.575749    27555.275     1.085646   -9900.0296   -11725.836    1825.8064    30.204263    30.204263    30.204263 
  144450    298.64427   -151.82566    27590.964    1.0842417   -9911.4067    -11690.92    1779.5135    30.217298    30.217298    30.217298 
  144500    299.67126   -445.62679    27610.394    1.0834787   -9937.6508   -11723.284     1785.633    30.224389    30.224389    30.224389 
  144550    302.68738   -89.135806    27610.269    1.0834836   -9967.4473   -11771.052    1803.6049    30.224344    30.224344    30.224344 
  144600    295.27152   -195.40458    27604.866    1.0836956   -9976.1178   -11735.534    1759.4165    30.222372    30.222372    30.222372 
  144650    294.69552    97.035901     27592.81    1.0841692   -9977.7249   -11733.709    1755.9843    30.217972    30.217972    30.217972 
  144700    289.58844   -184.28575    27576.001      1.08483   -9994.3748   -11719.928    1725.5531    30.211834    30.211834    30.211834 
  144750    297.93317   -200.51926    27550.127    1.0858488   -9990.6233     -11765.9    1775.2763    30.202382    30.202382    30.202382 
  144800    294.39596    150.64936    27517.018    1.0871553   -10008.933   -11763.133    1754.1993    30.190279    30.190279    30.190279 
  144850    288.07318    328.49911     27486.47    1.0883636   -10032.967   -11749.491    1716.5242    30.179103    30.179103    30.179103 
  144900    297.89257    154.50988    27465.568    1.0891919    -10032.56   -11807.595    1775.0344    30.171451    30.171451    30.171451 
  144950    293.60165    285.22688    27453.082    1.0896872   -10010.607   -11760.073    1749.4664    30.166878    30.166878    30.166878 
  145000    302.29432   -417.58924    27442.411     1.090111   -9984.8551   -11786.118    1801.2628    30.162969    30.162969    30.162969 
  145050    301.33055   -111.65836    27420.946    1.0909643   -9955.2523   -11750.772      1795.52    30.155103    30.155103    30.155103 
  145100    302.72373   -356.05706    27396.918    1.0919211   -9914.6683    -11718.49    1803.8215    30.146292    30.146292    30.146292 
  145150    308.56678    623.60502    27363.964    1.0932361   -9892.9776   -11731.616    1838.6381      30.1342      30.1342      30.1342 
  145200    301.36043    1452.0538    27355.158     1.093588   -9899.1553   -11694.853    1795.6981    30.130968    30.130968    30.130968 
  145250    302.28119    478.46358    27403.092    1.0916751   -9908.7626   -11709.947    1801.1846    30.148557    30.148557    30.148557 
  145300      292.724   -284.38996    27474.673    1.0888309    -9935.673    -11679.91    1744.2367    30.174784    30.174784    30.174784 
  145350    295.38861   -577.44925    27528.696    1.0866942   -9953.6511   -11713.765    1760.1142    30.194549    30.194549    30.194549 
  145400    301.17108    431.40933    27557.083    1.0855747   -9950.9322   -11745.502    1794.5698    30.204924    30.204924    30.204924 
  145450    306.19526   -642.10382    27588.463      1.08434   -9957.7315   -11782.239    1824.5071    30.216385    30.216385    30.216385 
  145500    298.75243   -709.25844    27599.633    1.0839011    -9955.501   -11735.659     1780.158    30.220462    30.220462    30.220462 
  145550    297.02099   -378.95169    27584.467     1.084497   -10006.558   -11776.399    1769.8409    30.214926    30.214926    30.214926 
  145600    290.81196   -958.05235    27549.696    1.0858658   -10053.195   -11786.039    1732.8436    30.202225    30.202225    30.202225 
  145650    291.33595   -252.67281    27478.522    1.0886784   -10058.354    -11794.32    1735.9658    30.176194    30.176194    30.176194 
  145700    297.12536    214.96454    27391.793    1.0921254   -10038.158   -11808.621    1770.4628    30.144412    30.144412    30.144412 
  145750    302.55103    294.54611    27312.268    1.0953053   -10002.319   -11805.112    1802.7925    30.115212    30.115212    30.115212 
  145800    304.22202    8.6156178    27246.379    1.0979541   -9985.9508     -11798.7    1812.7493    30.090975    30.090975    30.090975 
  145850    302.85335    192.36247     27188.88     1.100276   -9975.9677   -11780.562    1804.5939    30.069793    30.069793    30.069793 
  145900    299.18905     340.5469    27141.053    1.1022149   -9961.1065   -11743.866    1782.7597    30.052151    30.052151    30.052151 
  145950    301.85615    661.30456    27108.313    1.1035461   -9920.4303   -11719.082    1798.6519    30.040062    30.040062    30.040062 
  146000     304.6349    851.47939    27105.366    1.1036661   -9856.7876   -11671.997    1815.2095    30.038974    30.038974    30.038974 
  146050    312.19683    235.88474    27134.527      1.10248   -9830.0492   -11690.317    1860.2683    30.049742    30.049742    30.049742 
  146100    304.81246     246.6279    27176.632    1.1007719   -9838.4847   -11654.752    1816.2675    30.065277    30.065277    30.065277 
  146150    305.78765   -251.32326    27220.834    1.0989844   -9850.7315    -11672.81    1822.0783    30.081568    30.081568    30.081568 
  146200    303.49344   -199.68865    27252.696    1.0976996   -9884.0293   -11692.437    1808.4079    30.093301    30.093301    30.093301 
  146250     298.3931   -81.160755     27271.42    1.0969459   -9898.7663   -11676.783    1778.0168    30.100191    30.100191    30.100191 
  146300    297.09989    89.813752    27280.228    1.0965917   -9918.7174   -11689.029    1770.3111    30.103431    30.103431    30.103431 
  146350    301.74713   -134.45697    27286.798    1.0963277   -9924.1585   -11722.161    1798.0023    30.105848    30.105848    30.105848 
  146400    298.54637   -533.42855    27285.931    1.0963626    -9935.445   -11714.375    1778.9301    30.105529    30.105529    30.105529 
  146450    292.17696   -778.42986     27259.98    1.0974063   -9932.6155   -11673.593    1740.9771    30.095981    30.095981    30.095981 
  146500    296.72737   -614.61783    27196.265    1.0999772   -9921.2524   -11689.344    1768.0914    30.072515    30.072515    30.072515 
  146550    302.16408    555.08041    27110.481    1.1034579   -9869.1138     -11669.6    1800.4867    30.040863    30.040863    30.040863 
  146600     311.8612     660.0578    27046.574    1.1060652   -9827.7144   -11685.983    1858.2684     30.01724     30.01724     30.01724 
  146650    307.66436    972.09972    27018.213    1.1072262   -9823.0877   -11656.349    1833.2609    30.006744    30.006744    30.006744 
  146700    310.33062    673.59506    27026.677    1.1068794   -9843.3403   -11692.489    1849.1482    30.009877    30.009877    30.009877 
  146750    309.52343    487.65002     27066.18     1.105264    -9869.342    -11713.68    1844.3384    30.024491    30.024491    30.024491 
  146800    304.97509    780.35776    27137.305    1.1023671   -9908.1314   -11725.368    1817.2366    30.050768    30.050768    30.050768 
  146850    298.44453   -182.82917    27243.751      1.09806   -9932.6938   -11711.017    1778.3233    30.090008    30.090008    30.090008 
  146900    294.22008   -443.54466    27342.805    1.0940821   -9947.1981   -11700.349    1753.1513    30.126431    30.126431    30.126431 
  146950    300.90718   -750.95024    27405.779     1.091568   -9940.9406   -11733.938    1792.9974    30.149542    30.149542    30.149542 
  147000    297.65843   -862.86439    27430.125    1.0905992   -9938.6646   -11712.304    1773.6392    30.158467    30.158467    30.158467 
  147050    304.30902   -320.41875    27420.604    1.0909779   -9943.6493   -11756.917    1813.2677    30.154977    30.154977    30.154977 
  147100    310.54313   -13.551544    27399.416    1.0918216   -9924.7659    -11775.18    1850.4145    30.147208    30.147208    30.147208 
  147150    304.45779    254.72878    27383.105    1.0924719   -9935.8161    -11749.97    1814.1542    30.141225    30.141225    30.141225 
  147200    288.34869     228.8975    27378.408    1.0926593    -9983.156   -11701.322    1718.1659    30.139501    30.139501    30.139501 
  147250    290.34803   -548.71367    27378.256    1.0926654   -10001.063   -11731.143    1730.0792    30.139446    30.139446    30.139446 
  147300    300.85016   -283.04505    27362.165    1.0933079     -9990.02   -11782.678    1792.6576     30.13354     30.13354     30.13354 
  147350    309.64463   -103.68916    27331.442    1.0945369   -9966.1727   -11811.233    1845.0607    30.122257    30.122257    30.122257 
  147400    305.27461    315.07243    27298.576    1.0958547   -9961.2788     -11780.3    1819.0213    30.110179    30.110179    30.110179 
  147450    290.40115    35.005742    27277.029    1.0967204   -10003.021   -11733.417    1730.3957    30.102254    30.102254    30.102254 
  147500    291.17205    117.38294    27254.531    1.0976257   -10008.164   -11743.153    1734.9892    30.093976    30.093976    30.093976 
  147550    296.91811   -34.479562     27235.08    1.0984096   -10019.112   -11788.339    1769.2279    30.086815    30.086815    30.086815 
  147600    296.16406    214.82936    27221.869    1.0989427   -9984.2359   -11748.971    1764.7348     30.08195     30.08195     30.08195 
  147650    305.44625     569.9168     27225.51    1.0987957   -9925.7316   -11745.776     1820.044    30.083291    30.083291    30.083291 
  147700    296.26356    440.83748    27252.745    1.0976976   -9908.2191   -11673.547    1765.3277    30.093319    30.093319    30.093319 
  147750    296.77627    166.14089    27290.438    1.0961815   -9892.8565   -11661.239    1768.3827    30.107186    30.107186    30.107186 
  147800    304.87127   -338.55204    27325.414    1.0947784   -9882.7229   -11699.341     1816.618    30.120043    30.120043    30.120043 
  147850    297.40159    177.95458    27356.057    1.0935521   -9890.5664   -11662.675    1772.1088    30.131297    30.131297    30.131297 
  147900    309.12979     -297.846     27391.21    1.0921487   -9883.1414   -11725.134    1841.9929    30.144198    30.144198    30.144198 
  147950    297.41091    107.04269    27420.485    1.0909826   -9908.1818   -11680.346    1772.1644    30.154934    30.154934    30.154934 
  148000     298.8412   -222.20647     27446.78    1.0899374   -9946.7263   -11727.413    1780.6869     30.16457     30.16457     30.16457 
  148050     305.4345     -835.698    27464.237    1.0892446   -9990.6622   -11810.636     1819.974    30.170963    30.170963    30.170963 
  148100    290.62772   -35.593092    27460.729    1.0893838   -10006.024    -11737.77    1731.7458    30.169679    30.169679    30.169679 
  148150    301.64129   -824.65459    27441.612    1.0901427   -10009.619   -11806.991    1797.3716    30.162676    30.162676    30.162676 
  148200    293.32707    58.584245    27397.619    1.0918932   -9982.2344   -11730.065    1747.8302    30.146549    30.146549    30.146549 
  148250    303.69119    269.33957    27352.103    1.0937101   -9953.5873   -11763.174    1809.5863    30.129846    30.129846    30.129846 
  148300    309.02592    212.84262    27323.373    1.0948602   -9953.4627   -11794.837     1841.374    30.119293    30.119293    30.119293 
  148350    302.17624    337.72157    27310.431     1.095379   -9959.9375   -11760.497    1800.5592    30.114537    30.114537    30.114537 
  148400     299.0727    112.59338    27308.927    1.0954393   -9980.1256   -11762.192    1782.0663    30.113984    30.113984    30.113984 
  148450     292.7682    237.29056    27312.451     1.095298   -10033.189   -11777.689    1744.5001    30.115279    30.115279    30.115279 
  148500    290.07717      757.899    27325.022    1.0947941   -10057.833   -11786.298    1728.4652    30.119899    30.119899    30.119899 
  148550    298.89548     449.1738    27361.944    1.0933168   -10065.285   -11846.295    1781.0103    30.133459    30.133459    30.133459 
  148600    288.27638    312.13005    27420.394    1.0909863   -10064.865     -11782.6     1717.735      30.1549      30.1549      30.1549 
  148650    298.45753   -121.92639    27482.183    1.0885333   -10041.856   -11820.257    1778.4008    30.177534    30.177534    30.177534 
  148700    301.35402    -201.3811    27534.914    1.0864488   -10008.743   -11804.403    1795.6599    30.196822    30.196822    30.196822 
  148750    296.76853    -101.3651    27583.153    1.0845487   -9995.7639   -11764.101    1768.3366    30.214446    30.214446    30.214446 
  148800    298.89473   -754.19379      27621.2    1.0830548   -9977.8607   -11758.867    1781.0059    30.228332    30.228332    30.228332 
  148850    298.40267    -407.1763    27631.582    1.0826478   -9953.3078   -11731.382    1778.0739    30.232119    30.232119    30.232119 
  148900    301.55675   -59.193013    27621.409    1.0830466   -9943.6993   -11740.567    1796.8679    30.228408    30.228408    30.228408 
  148950    298.72593   -736.49162     27601.19      1.08384   -9951.7812   -11731.781    1780.0001     30.22103     30.22103     30.22103 
  149000    297.23009   -736.59968    27549.993    1.0858541    -9955.536   -11726.623    1771.0869    30.202333    30.202333    30.202333 
  149050    303.49871    -38.70673    27468.538    1.0890741    -9948.338   -11756.777    1808.4393    30.172538    30.172538    30.172538 
  149100     298.2083    701.25324    27384.635    1.0924109   -9955.8188   -11732.734    1776.9157    30.141786    30.141786    30.141786 
  149150     297.6877    457.17311    27327.024    1.0947139   -9952.1893   -11726.003    1773.8136    30.120634    30.120634    30.120634 
  149200    299.89784    -294.6978    27288.652    1.0962532   -9949.4026   -11736.386     1786.983    30.106529    30.106529    30.106529 
  149250    298.11916    305.41225     27250.26    1.0977977   -9955.7325   -11732.117    1776.3845    30.092404    30.092404    30.092404 
  149300    294.40742    499.95757    27226.181    1.0987686   -9946.0671   -11700.335    1754.2676    30.083538    30.083538    30.083538 
  149350    301.91915    1285.6006    27226.727    1.0987466   -9894.9627    -11693.99    1799.0273    30.083739    30.083739    30.083739 
  149400     305.1808    1530.0749    27278.273    1.0966703   -9855.5626   -11674.025    1818.4623    30.102712    30.102712    30.102712 
  149450    304.81676     697.3127    27392.662    1.0920907   -9880.4877   -11696.781    1816.2931    30.144731    30.144731    30.144731 
  149500    300.88702    -1218.162    27536.517    1.0863855   -9885.3353   -11678.213    1792.8772    30.197408    30.197408    30.197408 
  149550     295.0751    -1024.379    27637.151    1.0824297   -9888.3347   -11646.581    1758.2461    30.234149    30.234149    30.234149 
  149600    300.48833   -939.67916    27680.809    1.0807225   -9876.7651   -11667.267    1790.5016    30.250061    30.250061    30.250061 
  149650    302.37351   -415.13015    27680.238    1.0807448   -9870.9819   -11672.717    1801.7347    30.249853    30.249853    30.249853 
  149700    312.87069   -638.69827    27658.844    1.0815807   -9841.1524   -11705.436    1864.2836    30.242058    30.242058    30.242058 
  149750    309.75459     56.48307    27623.774    1.0829539   -9835.5833   -11681.299    1845.7159    30.229271    30.229271    30.229271 
  149800    304.37257    412.45662    27594.186    1.0841151   -9867.8137    -11681.46    1813.6464    30.218474    30.218474    30.218474 
  149850    304.20607   -406.67682    27576.434    1.0848129   -9927.9141   -11740.568    1812.6542    30.211993    30.211993    30.211993 
  149900    297.18493   -242.10775    27545.247    1.0860412   -9948.7162   -11719.534    1770.8178    30.200599    30.200599    30.200599 
  149950    301.71711    220.39274    27507.175    1.0875444   -9967.7377   -11765.561    1797.8234    30.186679    30.186679    30.186679 
SHAKE stats (type/ave/delta) on step 150000
  1 0.957944 0.00185177
  1 104.404 0.114221
  150000    302.85501    55.647431    27480.808    1.0885878   -9975.3549   -11779.959    1804.6038     30.17703     30.17703     30.17703 
  150006    297.67331    144.61415    27478.328    1.0886861   -9975.0288   -11748.757    1773.7279    30.176123    30.176123    30.176123 
Loop time of 343.512 on 28 procs for 100000 steps with 3000 atoms

Performance: 25.152 ns/day, 0.954 hours/ns, 291.110 timesteps/s
100.0% CPU use with 28 MPI tasks x no OpenMP threads

MPI task timing breakdown:
Section |  min time  |  avg time  |  max time  |%varavg| %total
---------------------------------------------------------------
Pair    | 116.6      | 136.45     | 155.95     |  83.5 | 39.72
Bond    | 0.032594   | 0.041563   | 0.056513   |   2.3 |  0.01
Kspace  | 112.39     | 131.94     | 151.77     |  84.9 | 38.41
Neigh   | 4.3754     | 4.3893     | 4.3984     |   0.3 |  1.28
Comm    | 11.897     | 12.106     | 12.278     |   2.7 |  3.52
Output  | 0.14511    | 0.14808    | 0.19916    |   2.6 |  0.04
Modify  | 39.007     | 45.701     | 57.318     |  99.8 | 13.30
Other   |            | 12.74      |            |       |  3.71

Nlocal:    107.143 ave 117 max 95 min
Histogram: 1 1 1 3 4 7 3 5 1 2
Nghost:    3691.29 ave 3723 max 3654 min
Histogram: 1 0 4 3 5 2 5 6 1 1
Neighs:    30931.4 ave 37095 max 27007 min
Histogram: 4 2 3 8 3 2 2 1 2 1

Total # of neighbors = 866078
Ave neighs/atom = 288.693
Ave special neighs/atom = 2
Neighbor list builds = 4353
Dangerous builds = 0

clear
OMP_NUM_THREADS environment is not set. Defaulting to 1 thread. (../comm.cpp:90)
  using 1 OpenMP thread(s) per MPI task












Total wall time: 0:08:32
